&FCI NORB= 10,NELEC= 12,MS2=0,
 ORBSYM=1,1,1,1,1,1,1,1,1,1
 ISYM=1,
&END
 0.2705918314     1     1     2     2
 0.0000000005     1     1     2     7
 -0.0147906176     1     1     2     8
 0.2256558999     1     1     3     3
 0.0000000154     1     1     3     4
 0.0000000056     1     1     3     9
 0.0000000154     1     1     4     3
 0.2304104172     1     1     4     4
 0.0017258252     1     1     4     9
 0.2538019726     1     1     5     5
 -0.0000000013     1     1     5     6
 -0.0000000013     1     1     6     5
 0.2813420111     1     1     6     6
 0.0000000005     1     1     7     2
 0.2669701106     1     1     7     7
 0.0000000007     1     1     7     8
 -0.0147906176     1     1     8     2
 0.0000000007     1     1     8     7
 0.2477410095     1     1     8     8
 0.0000000056     1     1     9     3
 0.0017258252     1     1     9     4
 0.1882450900     1     1     9     9
 0.1694154638     1     1    10    10
 -0.2705918314     1     2     2     1
 0.0000000130     1     2     2    10
 -0.0004707640     1     2     3     5
 0.0000000015     1     2     3     6
 0.0000000015     1     2     4     5
 0.0004705887     1     2     4     6
 0.0430202199     1     2     5     3
 -0.0000001369     1     2     5     4
 -0.0000001369     1     2     6     3
 -0.0430127624     1     2     6     4
 0.0020473470     1     2     6     9
 -0.0000000005     1     2     7     1
 -0.0028379678     1     2     7    10
 0.0147906176     1     2     8     1
 -0.0000000014     1     2     8    10
 0.0006521309     1     2     9     6
 -0.0002345712     1     2    10     7
 -0.0000000001     1     2    10     8
 -0.0434678193     1     3     2     5
 0.0000001383     1     3     2     6
 -0.2256558999     1     3     3     1
 0.0000000181     1     3     3    10
 -0.0000000154     1     3     4     1
 0.0003113626     1     3     4    10
 -0.0430202199     1     3     5     2
 -0.0000000857     1     3     5     7
 -0.0171306135     1     3     5     8
 0.0000001369     1     3     6     2
 0.0355707674     1     3     6     7
 -0.0000000852     1     3     6     8
 -0.0000000843     1     3     7     5
 0.0345278902     1     3     7     6
 -0.0166690906     1     3     8     5
 -0.0000000816     1     3     8     6
 -0.0000000056     1     3     9     1
 -0.0292500508     1     3     9    10
 -0.0018543179     1     3    10     4
 -0.0283361343     1     3    10     9
 0.0000001383     1     4     2     5
 0.0434596199     1     4     2     6
 -0.0000000154     1     4     3     1
 0.0021550044     1     4     3    10
 -0.2304104172     1     4     4     1
 0.0000000033     1     4     4    10
 0.0000001369     1     4     5     2
 -0.0261940785     1     4     5     7
 0.0000000557     1     4     5     8
 0.0430127624     1     4     6     2
 -0.0000001152     1     4     6     7
 -0.0265186032     1     4     6     8
 -0.0257778836     1     4     7     5
 -0.0000001119     1     4     7     6
 0.0000000541     1     4     8     5
 -0.0254100016     1     4     8     6
 -0.0017258252     1     4     9     1
 0.0000001077     1     4     9    10
 0.0018543179     1     4    10     3
 0.0000001043     1     4    10     9
 0.0434678193     1     5     2     3
 -0.0000001383     1     5     2     4
 0.0000000001     1     5     2     9
 0.0004707640     1     5     3     2
 -0.0000000004     1     5     3     7
 -0.0002393449     1     5     3     8
 -0.0000000015     1     5     4     2
 -0.0000991518     1     5     4     7
 0.0000000008     1     5     4     8
 -0.2538019726     1     5     5     1
 0.0000000114     1     5     5    10
 0.0000000013     1     5     6     1
 0.0025136417     1     5     6    10
 0.0000000843     1     5     7     3
 0.0257778836     1     5     7     4
 -0.0005609195     1     5     7     9
 0.0166690906     1     5     8     3
 -0.0000000541     1     5     8     4
 0.0000000001     1     5     8     9
 -0.0002535562     1     5     9     7
 0.0003562813     1     5    10     6
 -0.0000001383     1     6     2     3
 -0.0434596199     1     6     2     4
 0.0014974978     1     6     2     9
 -0.0000000015     1     6     3     2
 0.0006030971     1     6     3     7
 -0.0000000024     1     6     3     8
 -0.0004705887     1     6     4     2
 -0.0000000020     1     6     4     7
 -0.0007546860     1     6     4     8
 0.0000000013     1     6     5     1
 0.0019983201     1     6     5    10
 -0.2813420111     1     6     6     1
 0.0000000138     1     6     6    10
 -0.0345278902     1     6     7     3
 0.0000001119     1     6     7     4
 -0.0000000001     1     6     7     9
 0.0000000816     1     6     8     3
 0.0254100016     1     6     8     4
 -0.0005684584     1     6     8     9
 -0.0006521309     1     6     9     2
 -0.0002493632     1     6     9     8
 -0.0003562813     1     6    10     5
 -0.0000000005     1     7     2     1
 -0.0020169866     1     7     2    10
 0.0000000004     1     7     3     5
 -0.0006030971     1     7     3     6
 0.0000991518     1     7     4     5
 0.0000000020     1     7     4     6
 0.0000000857     1     7     5     3
 0.0261940785     1     7     5     4
 0.0001197731     1     7     5     9
 -0.0355707674     1     7     6     3
 0.0000001152     1     7     6     4
 -0.2669701106     1     7     7     1
 0.0000000116     1     7     7    10
 -0.0000000007     1     7     8     1
 0.0014879570     1     7     8    10
 0.0002535562     1     7     9     5
 0.0002345712     1     7    10     2
 -0.0000326658     1     7    10     8
 0.0147906176     1     8     2     1
 -0.0000000010     1     8     2    10
 0.0002393449     1     8     3     5
 0.0000000024     1     8     3     6
 -0.0000000008     1     8     4     5
 0.0007546860     1     8     4     6
 0.0171306135     1     8     5     3
 -0.0000000557     1     8     5     4
 0.0000000001     1     8     5     9
 0.0000000852     1     8     6     3
 0.0265186032     1     8     6     4
 0.0000865519     1     8     6     9
 -0.0000000007     1     8     7     1
 0.0016454693     1     8     7    10
 -0.2477410095     1     8     8     1
 0.0000000104     1     8     8    10
 0.0002493632     1     8     9     6
 0.0000000001     1     8    10     2
 0.0000326658     1     8    10     7
 -0.0000000001     1     9     2     5
 -0.0014974978     1     9     2     6
 -0.0000000056     1     9     3     1
 -0.0009507454     1     9     3    10
 -0.0017258252     1     9     4     1
 0.0000000035     1     9     4    10
 -0.0001197731     1     9     5     7
 -0.0000000001     1     9     5     8
 -0.0020473470     1     9     6     2
 -0.0000865519     1     9     6     8
 0.0005609195     1     9     7     5
 0.0000000001     1     9     7     6
 -0.0000000001     1     9     8     5
 0.0005684584     1     9     8     6
 -0.1882450900     1     9     9     1
 0.0000000072     1     9     9    10
 0.0283361343     1     9    10     3
 -0.0000001043     1     9    10     4
 -0.0000000130     1    10     2     2
 0.0020169866     1    10     2     7
 0.0000000010     1    10     2     8
 -0.0000000181     1    10     3     3
 -0.0021550044     1    10     3     4
 0.0009507454     1    10     3     9
 -0.0003113626     1    10     4     3
 -0.0000000033     1    10     4     4
 -0.0000000035     1    10     4     9
 -0.0000000114     1    10     5     5
 -0.0019983201     1    10     5     6
 -0.0025136417     1    10     6     5
 -0.0000000138     1    10     6     6
 0.0028379678     1    10     7     2
 -0.0000000116     1    10     7     7
 -0.0016454693     1    10     7     8
 0.0000000014     1    10     8     2
 -0.0014879570     1    10     8     7
 -0.0000000104     1    10     8     8
 0.0292500508     1    10     9     3
 -0.0000001077     1    10     9     4
 -0.0000000072     1    10     9     9
 -0.1694154638     1    10    10     1
 -0.2705918314     2     1     1     2
 -0.0000000005     2     1     1     7
 0.0147906176     2     1     1     8
 0.0430202199     2     1     3     5
 -0.0000001369     2     1     3     6
 -0.0000001369     2     1     4     5
 -0.0430127624     2     1     4     6
 -0.0004707640     2     1     5     3
 0.0000000015     2     1     5     4
 0.0000000015     2     1     6     3
 0.0004705887     2     1     6     4
 0.0006521309     2     1     6     9
 -0.0002345712     2     1     7    10
 -0.0000000001     2     1     8    10
 0.0020473470     2     1     9     6
 0.0000000130     2     1    10     2
 -0.0028379678     2     1    10     7
 -0.0000000014     2     1    10     8
 0.2705918314     2     2     1     1
 -0.0000000130     2     2     1    10
 0.2704936377     2     2     3     3
 0.2704892740     2     2     4     4
 -0.0000017014     2     2     4     9
 0.2144062691     2     2     5     5
 0.2144092746     2     2     6     6
 0.2520610443     2     2     7     7
 0.2520779854     2     2     8     8
 -0.0000017014     2     2     9     4
 0.1880239544     2     2     9     9
 -0.0000000130     2     2    10     1
 0.1767113611     2     2    10    10
 0.0434678193     2     3     1     5
 -0.0000001383     2     3     1     6
 -0.2704936377     2     3     3     2
 -0.0000000151     2     3     3     7
 0.0023382813     2     3     3     8
 -0.0023374208     2     3     4     7
 -0.0000000151     2     3     4     8
 0.0004707640     2     3     5     1
 -0.0000000004     2     3     5    10
 -0.0000000015     2     3     6     1
 -0.0001229527     2     3     6    10
 0.0000011909     2     3     7     4
 0.0005694159     2     3     7     9
 -0.0000000018     2     3     8     9
 -0.0012079454     2     3     9     7
 0.0000000040     2     3     9     8
 -0.0000000117     2     3    10     5
 -0.0032197291     2     3    10     6
 -0.0000001383     2     4     1     5
 -0.0434596199     2     4     1     6
 -0.0023415490     2     4     3     7
 -0.0000000151     2     4     3     8
 -0.2704892740     2     4     4     2
 0.0000000152     2     4     4     7
 -0.0023339157     2     4     4     8
 -0.0000000015     2     4     5     1
 -0.0001164851     2     4     5    10
 -0.0004705887     2     4     6     1
 0.0000000005     2     4     6    10
 -0.0000011909     2     4     7     3
 -0.0000000018     2     4     7     9
 -0.0005733372     2     4     8     9
 0.0000017014     2     4     9     2
 0.0000000039     2     4     9     7
 0.0012302257     2     4     9     8
 -0.0032512606     2     4    10     5
 0.0000000116     2     4    10     6
 -0.0434678193     2     5     1     3
 0.0000001383     2     5     1     4
 -0.0000000001     2     5     1     9
 -0.0430202199     2     5     3     1
 0.0000000113     2     5     3    10
 0.0000001369     2     5     4     1
 0.0031436142     2     5     4    10
 -0.2144062691     2     5     5     2
 0.0000000016     2     5     5     7
 0.0264030320     2     5     5     8
 -0.0263487704     2     5     6     7
 0.0000000016     2     5     6     8
 0.0000160884     2     5     7     6
 0.0376720524     2     5     9    10
 0.0000000117     2     5    10     3
 0.0032512606     2     5    10     4
 0.0374008421     2     5    10     9
 0.0000001383     2     6     1     3
 0.0434596199     2     6     1     4
 -0.0014974978     2     6     1     9
 0.0000001369     2     6     3     1
 0.0030464594     2     6     3    10
 0.0430127624     2     6     4     1
 -0.0000000110     2     6     4    10
 -0.0263626863     2     6     5     7
 0.0000000015     2     6     5     8
 -0.2144092746     2     6     6     2
 -0.0000000015     2     6     6     7
 -0.0263902090     2     6     6     8
 -0.0000160884     2     6     7     5
 -0.0020473470     2     6     9     1
 0.0000000187     2     6     9    10
 0.0032197291     2     6    10     3
 -0.0000000116     2     6    10     4
 0.0000000186     2     6    10     9
 0.0000000005     2     7     1     1
 0.0020169866     2     7     1    10
 0.0000000151     2     7     3     3
 0.0023415490     2     7     3     4
 0.0020476397     2     7     3     9
 0.0023374208     2     7     4     3
 -0.0000000152     2     7     4     4
 -0.0000000066     2     7     4     9
 -0.0000000016     2     7     5     5
 0.0263626863     2     7     5     6
 0.0263487704     2     7     6     5
 0.0000000015     2     7     6     6
 -0.2520610443     2     7     7     2
 -0.0000087309     2     7     7     8
 0.0012079454     2     7     9     3
 -0.0000000039     2     7     9     4
 0.0028379678     2     7    10     1
 -0.0000000077     2     7    10    10
 -0.0147906176     2     8     1     1
 0.0000000010     2     8     1    10
 -0.0023382813     2     8     3     3
 0.0000000151     2     8     3     4
 -0.0000000067     2     8     3     9
 0.0000000151     2     8     4     3
 0.0023339157     2     8     4     4
 -0.0021056625     2     8     4     9
 -0.0264030320     2     8     5     5
 -0.0000000015     2     8     5     6
 -0.0000000016     2     8     6     5
 0.0263902090     2     8     6     6
 0.0000087309     2     8     7     7
 -0.2520779854     2     8     8     2
 -0.0000000040     2     8     9     3
 -0.0012302257     2     8     9     4
 -0.0000015828     2     8     9     9
 0.0000000014     2     8    10     1
 0.0082262839     2     8    10    10
 0.0000000001     2     9     1     5
 0.0014974978     2     9     1     6
 -0.0020476397     2     9     3     7
 0.0000000067     2     9     3     8
 0.0000017014     2     9     4     2
 0.0000000066     2     9     4     7
 0.0021056625     2     9     4     8
 0.0002902461     2     9     5    10
 -0.0006521309     2     9     6     1
 0.0000000001     2     9     6    10
 -0.0005694159     2     9     7     3
 0.0000000018     2     9     7     4
 0.0000000018     2     9     8     3
 0.0005733372     2     9     8     4
 -0.1880239544     2     9     9     2
 0.0000015828     2     9     9     8
 -0.0374008421     2     9    10     5
 -0.0000000186     2     9    10     6
 0.0000000130     2    10     1     2
 -0.0020169866     2    10     1     7
 -0.0000000010     2    10     1     8
 -0.0000000113     2    10     3     5
 -0.0030464594     2    10     3     6
 -0.0031436142     2    10     4     5
 0.0000000110     2    10     4     6
 0.0000000004     2    10     5     3
 0.0001164851     2    10     5     4
 -0.0002902461     2    10     5     9
 0.0001229527     2    10     6     3
 -0.0000000005     2    10     6     4
 -0.0000000001     2    10     6     9
 0.0002345712     2    10     7     1
 0.0000000001     2    10     8     1
 -0.0376720524     2    10     9     5
 -0.0000000187     2    10     9     6
 -0.1767113611     2    10    10     2
 0.0000000077     2    10    10     7
 -0.0082262839     2    10    10     8
 -0.2256558999     3     1     1     3
 -0.0000000154     3     1     1     4
 -0.0000000056     3     1     1     9
 -0.0430202199     3     1     2     5
 0.0000001369     3     1     2     6
 -0.0018543179     3     1     4    10
 -0.0434678193     3     1     5     2
 -0.0000000843     3     1     5     7
 -0.0166690906     3     1     5     8
 0.0000001383     3     1     6     2
 0.0345278902     3     1     6     7
 -0.0000000816     3     1     6     8
 -0.0000000857     3     1     7     5
 0.0355707674     3     1     7     6
 -0.0171306135     3     1     8     5
 -0.0000000852     3     1     8     6
 -0.0283361343     3     1     9    10
 0.0000000181     3     1    10     3
 0.0003113626     3     1    10     4
 -0.0292500508     3     1    10     9
 0.0004707640     3     2     1     5
 -0.0000000015     3     2     1     6
 -0.2704936377     3     2     2     3
 0.0000011909     3     2     4     7
 0.0434678193     3     2     5     1
 -0.0000000117     3     2     5    10
 -0.0000001383     3     2     6     1
 -0.0032197291     3     2     6    10
 -0.0000000151     3     2     7     3
 -0.0023374208     3     2     7     4
 -0.0012079454     3     2     7     9
 0.0023382813     3     2     8     3
 -0.0000000151     3     2     8     4
 0.0000000040     3     2     8     9
 0.0005694159     3     2     9     7
 -0.0000000018     3     2     9     8
 -0.0000000004     3     2    10     5
 -0.0001229527     3     2    10     6
 0.2256558999     3     3     1     1
 -0.0000000181     3     3     1    10
 0.2704936377     3     3     2     2
 0.0000000151     3     3     2     7
 -0.0023382813     3     3     2     8
 0.2585079864     3     3     4     4
 -0.0000039707     3     3     4     9
 0.2666035572     3     3     5     5
 -0.0000000101     3     3     5     6
 -0.0000000101     3     3     6     5
 0.2696789885     3     3     6     6
 0.0000000151     3     3     7     2
 0.2608038150     3     3     7     7
 -0.0000000128     3     3     7     8
 -0.0023382813     3     3     8     2
 -0.0000000128     3     3     8     7
 0.2567717779     3     3     8     8
 -0.0000039707     3     3     9     4
 0.1895513332     3     3     9     9
 -0.0000000181     3     3    10     1
 0.1751965635     3     3    10    10
 0.0000000154     3     4     1     1
 -0.0021550044     3     4     1    10
 0.0023415490     3     4     2     7
 0.0000000151     3     4     2     8
 -0.2585079864     3     4     4     3
 0.0000000101     3     4     5     5
 -0.0019222664     3     4     5     6
 -0.0011539199     3     4     6     5
 -0.0000000101     3     4     6     6
 0.0023374208     3     4     7     2
 -0.0000000129     3     4     7     7
 -0.0011703234     3     4     7     8
 0.0000000151     3     4     8     2
 -0.0028526829     3     4     8     7
 0.0000000129     3     4     8     8
 0.0000039707     3     4     9     3
 -0.0003113626     3     4    10     1
 0.0000000274     3     4    10    10
 -0.0004707640     3     5     1     2
 0.0000000004     3     5     1     7
 0.0002393449     3     5     1     8
 0.0430202199     3     5     2     1
 -0.0000000113     3     5     2    10
 -0.0000759677     3     5     4     6
 -0.2666035572     3     5     5     3
 -0.0000000101     3     5     5     4
 0.0000000026     3     5     5     9
 0.0000000101     3     5     6     3
 0.0011539199     3     5     6     4
 0.0009430922     3     5     6     9
 0.0000000857     3     5     7     1
 0.0012224260     3     5     7    10
 0.0171306135     3     5     8     1
 -0.0000000122     3     5     8    10
 -0.0000046887     3     5     9     6
 0.0000000004     3     5    10     2
 0.0001074706     3     5    10     7
 -0.0000000006     3     5    10     8
 0.0000000015     3     6     1     2
 -0.0006030971     3     6     1     7
 0.0000000024     3     6     1     8
 -0.0000001369     3     6     2     1
 -0.0030464594     3     6     2    10
 0.0000759677     3     6     4     5
 0.0000000101     3     6     5     3
 0.0019222664     3     6     5     4
 0.0008853158     3     6     5     9
 -0.2696789885     3     6     6     3
 0.0000000101     3     6     6     4
 -0.0000000029     3     6     6     9
 -0.0355707674     3     6     7     1
 -0.0000000003     3     6     7    10
 0.0000000852     3     6     8     1
 0.0020534330     3     6     8    10
 0.0000046887     3     6     9     5
 0.0001229527     3     6    10     2
 -0.0000000005     3     6    10     7
 -0.0000881561     3     6    10     8
 -0.0000000004     3     7     1     5
 0.0006030971     3     7     1     6
 -0.0000000151     3     7     2     3
 -0.0023415490     3     7     2     4
 -0.0020476397     3     7     2     9
 -0.0000011909     3     7     4     2
 0.0007817271     3     7     4     8
 0.0000000843     3     7     5     1
 0.0009256960     3     7     5    10
 -0.0345278902     3     7     6     1
 0.0000000007     3     7     6    10
 -0.2608038150     3     7     7     3
 0.0000000129     3     7     7     4
 -0.0000000009     3     7     7     9
 0.0000000128     3     7     8     3
 0.0028526829     3     7     8     4
 0.0002546588     3     7     8     9
 -0.0005694159     3     7     9     2
 -0.0000014493     3     7     9     8
 -0.0001074706     3     7    10     5
 0.0000000005     3     7    10     6
 -0.0002393449     3     8     1     5
 -0.0000000024     3     8     1     6
 0.0023382813     3     8     2     3
 -0.0000000151     3     8     2     4
 0.0000000067     3     8     2     9
 -0.0007817271     3     8     4     7
 0.0166690906     3     8     5     1
 -0.0000000097     3     8     5    10
 0.0000000816     3     8     6     1
 0.0020801291     3     8     6    10
 0.0000000128     3     8     7     3
 0.0011703234     3     8     7     4
 0.0003176450     3     8     7     9
 -0.2567717779     3     8     8     3
 -0.0000000129     3     8     8     4
 0.0000000011     3     8     8     9
 0.0000000018     3     8     9     2
 0.0000014493     3     8     9     7
 0.0000000006     3     8    10     5
 0.0000881561     3     8    10     6
 0.0000000056     3     9     1     1
 0.0009507454     3     9     1    10
 0.0020476397     3     9     2     7
 -0.0000000067     3     9     2     8
 0.0000039707     3     9     4     3
 -0.0000000026     3     9     5     5
 -0.0008853158     3     9     5     6
 -0.0009430922     3     9     6     5
 0.0000000029     3     9     6     6
 0.0012079454     3     9     7     2
 0.0000000009     3     9     7     7
 -0.0003176450     3     9     7     8
 -0.0000000040     3     9     8     2
 -0.0002546588     3     9     8     7
 -0.0000000011     3     9     8     8
 -0.1895513332     3     9     9     3
 0.0292500508     3     9    10     1
 -0.0000000040     3     9    10    10
 0.0000000181     3    10     1     3
 0.0021550044     3    10     1     4
 -0.0009507454     3    10     1     9
 0.0000000113     3    10     2     5
 0.0030464594     3    10     2     6
 0.0018543179     3    10     4     1
 0.0000000117     3    10     5     2
 -0.0009256960     3    10     5     7
 0.0000000097     3    10     5     8
 0.0032197291     3    10     6     2
 -0.0000000007     3    10     6     7
 -0.0020801291     3    10     6     8
 -0.0012224260     3    10     7     5
 0.0000000003     3    10     7     6
 0.0000000122     3    10     8     5
 -0.0020534330     3    10     8     6
 0.0283361343     3    10     9     1
 -0.1751965635     3    10    10     3
 -0.0000000274     3    10    10     4
 0.0000000040     3    10    10     9
 -0.0000000154     4     1     1     3
 -0.2304104172     4     1     1     4
 -0.0017258252     4     1     1     9
 0.0000001369     4     1     2     5
 0.0430127624     4     1     2     6
 0.0018543179     4     1     3    10
 0.0000001383     4     1     5     2
 -0.0257778836     4     1     5     7
 0.0000000541     4     1     5     8
 0.0434596199     4     1     6     2
 -0.0000001119     4     1     6     7
 -0.0254100016     4     1     6     8
 -0.0261940785     4     1     7     5
 -0.0000001152     4     1     7     6
 0.0000000557     4     1     8     5
 -0.0265186032     4     1     8     6
 0.0000001043     4     1     9    10
 0.0021550044     4     1    10     3
 0.0000000033     4     1    10     4
 0.0000001077     4     1    10     9
 -0.0000000015     4     2     1     5
 -0.0004705887     4     2     1     6
 -0.2704892740     4     2     2     4
 0.0000017014     4     2     2     9
 -0.0000011909     4     2     3     7
 -0.0000001383     4     2     5     1
 -0.0032512606     4     2     5    10
 -0.0434596199     4     2     6     1
 0.0000000116     4     2     6    10
 -0.0023415490     4     2     7     3
 0.0000000152     4     2     7     4
 0.0000000039     4     2     7     9
 -0.0000000151     4     2     8     3
 -0.0023339157     4     2     8     4
 0.0012302257     4     2     8     9
 -0.0000000018     4     2     9     7
 -0.0005733372     4     2     9     8
 -0.0001164851     4     2    10     5
 0.0000000005     4     2    10     6
 0.0000000154     4     3     1     1
 -0.0003113626     4     3     1    10
 0.0023374208     4     3     2     7
 0.0000000151     4     3     2     8
 -0.2585079864     4     3     3     4
 0.0000039707     4     3     3     9
 0.0000000101     4     3     5     5
 -0.0011539199     4     3     5     6
 -0.0019222664     4     3     6     5
 -0.0000000101     4     3     6     6
 0.0023415490     4     3     7     2
 -0.0000000129     4     3     7     7
 -0.0028526829     4     3     7     8
 0.0000000151     4     3     8     2
 -0.0011703234     4     3     8     7
 0.0000000129     4     3     8     8
 -0.0021550044     4     3    10     1
 0.0000000274     4     3    10    10
 0.2304104172     4     4     1     1
 -0.0000000033     4     4     1    10
 0.2704892740     4     4     2     2
 -0.0000000152     4     4     2     7
 0.0023339157     4     4     2     8
 0.2585079864     4     4     3     3
 0.2696801585     4     4     5     5
 0.0000000101     4     4     5     6
 0.0000000101     4     4     6     5
 0.2666051009     4     4     6     6
 -0.0000000152     4     4     7     2
 0.2567714560     4     4     7     7
 0.0000000128     4     4     7     8
 0.0023339157     4     4     8     2
 0.0000000128     4     4     8     7
 0.2607852236     4     4     8     8
 0.1895547724     4     4     9     9
 -0.0000000033     4     4    10     1
 0.1850600594     4     4    10    10
 0.0000000015     4     5     1     2
 0.0000991518     4     5     1     7
 -0.0000000008     4     5     1     8
 -0.0000001369     4     5     2     1
 -0.0031436142     4     5     2    10
 0.0000759677     4     5     3     6
 -0.0000000101     4     5     5     3
 -0.2696801585     4     5     5     4
 0.0008487607     4     5     5     9
 0.0019222664     4     5     6     3
 -0.0000000101     4     5     6     4
 -0.0000000030     4     5     6     9
 0.0261940785     4     5     7     1
 -0.0000000047     4     5     7    10
 -0.0000000557     4     5     8     1
 -0.0038567700     4     5     8    10
 0.0000000001     4     5     9     6
 0.0001164851     4     5    10     2
 -0.0000000003     4     5    10     7
 -0.0002166149     4     5    10     8
 0.0004705887     4     6     1     2
 0.0000000020     4     6     1     7
 0.0007546860     4     6     1     8
 -0.0430127624     4     6     2     1
 0.0000000110     4     6     2    10
 -0.0000759677     4     6     3     5
 0.0011539199     4     6     5     3
 -0.0000000101     4     6     5     4
 -0.0000000027     4     6     5     9
 0.0000000101     4     6     6     3
 -0.2666051009     4     6     6     4
 -0.0008937899     4     6     6     9
 0.0000001152     4     6     7     1
 -0.0005915697     4     6     7    10
 0.0265186032     4     6     8     1
 -0.0000000073     4     6     8    10
 -0.0000000001     4     6     9     5
 -0.0000000005     4     6    10     2
 -0.0001928774     4     6    10     7
 0.0000000002     4     6    10     8
 -0.0000991518     4     7     1     5
 -0.0000000020     4     7     1     6
 -0.0023374208     4     7     2     3
 0.0000000152     4     7     2     4
 0.0000000066     4     7     2     9
 0.0000011909     4     7     3     2
 -0.0007817271     4     7     3     8
 0.0257778836     4     7     5     1
 -0.0000000037     4     7     5    10
 0.0000001119     4     7     6     1
 -0.0001879518     4     7     6    10
 0.0000000129     4     7     7     3
 -0.2567714560     4     7     7     4
 -0.0002857061     4     7     7     9
 0.0011703234     4     7     8     3
 -0.0000000128     4     7     8     4
 -0.0000000008     4     7     8     9
 0.0000000018     4     7     9     2
 0.0000000003     4     7    10     5
 0.0001928774     4     7    10     6
 0.0000000008     4     8     1     5
 -0.0007546860     4     8     1     6
 -0.0000000151     4     8     2     3
 -0.0023339157     4     8     2     4
 0.0021056625     4     8     2     9
 0.0007817271     4     8     3     7
 -0.0000000541     4     8     5     1
 -0.0030082468     4     8     5    10
 0.0254100016     4     8     6     1
 -0.0000000072     4     8     6    10
 0.0028526829     4     8     7     3
 -0.0000000128     4     8     7     4
 -0.0000000011     4     8     7     9
 -0.0000000129     4     8     8     3
 -0.2607852236     4     8     8     4
 0.0003337012     4     8     8     9
 0.0005733372     4     8     9     2
 0.0002166149     4     8    10     5
 -0.0000000002     4     8    10     6
 0.0017258252     4     9     1     1
 -0.0000000035     4     9     1    10
 -0.0000017014     4     9     2     2
 -0.0000000066     4     9     2     7
 -0.0021056625     4     9     2     8
 -0.0000039707     4     9     3     3
 -0.0008487607     4     9     5     5
 0.0000000027     4     9     5     6
 0.0000000030     4     9     6     5
 0.0008937899     4     9     6     6
 -0.0000000039     4     9     7     2
 0.0002857061     4     9     7     7
 0.0000000011     4     9     7     8
 -0.0012302257     4     9     8     2
 0.0000000008     4     9     8     7
 -0.0003337012     4     9     8     8
 -0.1895547724     4     9     9     4
 -0.0000001077     4     9    10     1
 -0.0009646186     4     9    10    10
 0.0003113626     4    10     1     3
 0.0000000033     4    10     1     4
 0.0000000035     4    10     1     9
 0.0031436142     4    10     2     5
 -0.0000000110     4    10     2     6
 -0.0018543179     4    10     3     1
 0.0032512606     4    10     5     2
 0.0000000037     4    10     5     7
 0.0030082468     4    10     5     8
 -0.0000000116     4    10     6     2
 0.0001879518     4    10     6     7
 0.0000000072     4    10     6     8
 0.0000000047     4    10     7     5
 0.0005915697     4    10     7     6
 0.0038567700     4    10     8     5
 0.0000000073     4    10     8     6
 -0.0000001043     4    10     9     1
 -0.0000000274     4    10    10     3
 -0.1850600594     4    10    10     4
 0.0009646186     4    10    10     9
 -0.2538019726     5     1     1     5
 0.0000000013     5     1     1     6
 0.0004707640     5     1     2     3
 -0.0000000015     5     1     2     4
 0.0434678193     5     1     3     2
 0.0000000843     5     1     3     7
 0.0166690906     5     1     3     8