&FCI NORB= 13,NELEC= 14,MS2=0,
 ORBSYM=1,1,1,1,1,1,1,1,1,1,1,1,1
 ISYM=1,
&END
 0.2198088788     1     1     2     2
 -0.0002994243     1     1     2     4
 -0.0032371044     1     1     2    10
 0.5647467871     1     1     3     3
 -0.0000000075     1     1     3     4
 0.0038805874     1     1     3     5
 0.0000000010     1     1     3    10
 0.1354517619     1     1     3    13
 -0.0002994243     1     1     4     2
 -0.0000000075     1     1     4     3
 0.5721422025     1     1     4     4
 0.0000000017     1     1     4     5
 -0.0334812217     1     1     4    10
 -0.0000000029     1     1     4    13
 0.0038805874     1     1     5     3
 0.0000000017     1     1     5     4
 0.5363405896     1     1     5     5
 0.0000000068     1     1     5    10
 0.0975211983     1     1     5    13
 0.5322127991     1     1     6     6
 -0.0000000069     1     1     6     8
 0.0000000011     1     1     6     9
 0.0000258099     1     1     6    11
 0.2036276799     1     1     6    12
 0.5322127991     1     1     7     7
 0.0000000011     1     1     7     8
 0.0000000069     1     1     7     9
 0.2036276799     1     1     7    11
 -0.0000258099     1     1     7    12
 -0.0000000069     1     1     8     6
 0.0000000011     1     1     8     7
 0.5464238690     1     1     8     8
 0.0000000007     1     1     8    11
 -0.0000000045     1     1     8    12
 0.0000000011     1     1     9     6
 0.0000000069     1     1     9     7
 0.5464238690     1     1     9     9
 0.0000000045     1     1     9    11
 0.0000000007     1     1     9    12
 -0.0032371044     1     1    10     2
 0.0000000010     1     1    10     3
 -0.0334812217     1     1    10     4
 0.0000000068     1     1    10     5
 0.5757256652     1     1    10    10
 0.0000000042     1     1    10    13
 0.0000258099     1     1    11     6
 0.2036276799     1     1    11     7
 0.0000000007     1     1    11     8
 0.0000000045     1     1    11     9
 0.5313609784     1     1    11    11
 0.2036276799     1     1    12     6
 -0.0000258099     1     1    12     7
 -0.0000000045     1     1    12     8
 0.0000000007     1     1    12     9
 0.5313609784     1     1    12    12
 0.1354517619     1     1    13     3
 -0.0000000029     1     1    13     4
 0.0975211983     1     1    13     5
 0.0000000042     1     1    13    10
 0.5397190516     1     1    13    13
 -0.2198088788     1     2     2     1
 -0.0001362628     1     2     2     3
 -0.0030382340     1     2     2     5
 -0.0022889131     1     2     2    13
 0.3471022204     1     2     3     4
 -0.0432005688     1     2     3    10
 0.0002994243     1     2     4     1
 0.3471027935     1     2     4     3
 -0.0784139791     1     2     4     5
 0.1326334503     1     2     4    13
 -0.0784238513     1     2     5     4
 -0.3158539289     1     2     5    10
 0.3213872963     1     2     6     8
 -0.0497987439     1     2     6     9
 -0.0497987439     1     2     7     8
 -0.3213872963     1     2     7     9
 0.3213439917     1     2     8     6
 -0.0497920339     1     2     8     7
 -0.0326423664     1     2     8    11
 0.2108413983     1     2     8    12
 -0.0497920339     1     2     9     6
 -0.3213439917     1     2     9     7
 -0.2108413983     1     2     9    11
 -0.0326423664     1     2     9    12
 0.0032371044     1     2    10     1
 -0.0431946666     1     2    10     3
 -0.3157645026     1     2    10     5
 -0.1922042226     1     2    10    13
 -0.0326500408     1     2    11     8
 -0.2108909680     1     2    11     9
 0.2108909680     1     2    12     8
 -0.0326500408     1     2    12     9
 0.1326259221     1     2    13     4
 -0.1922725842     1     2    13    10
 0.0001362628     1     3     2     2
 -0.0000005731     1     3     2     4
 -0.0000059022     1     3     2    10
 -0.5647467871     1     3     3     1
 -0.0022372655     1     3     3     5
 -0.0024482704     1     3     3    13
 0.0000000075     1     3     4     1
 -0.3471027935     1     3     4     2
 -0.0003546962     1     3     4     4
 -0.0032133700     1     3     4    10
 -0.0038805874     1     3     5     1
 -0.0176348043     1     3     5     5
 -0.0000000003     1     3     5    10
 -0.0142995110     1     3     5    13
 -0.0179143728     1     3     6     6
 0.0000000002     1     3     6     8
 -0.0000028813     1     3     6    11
 -0.0227320838     1     3     6    12
 -0.0179143728     1     3     7     7
 -0.0000000002     1     3     7     9
 -0.0227320838     1     3     7    11
 0.0000028813     1     3     7    12
 0.0000000002     1     3     8     6
 -0.0187420914     1     3     8     8
 0.0000000003     1     3     8    12
 -0.0000000002     1     3     9     7
 -0.0187420914     1     3     9     9
 -0.0000000003     1     3     9    11
 -0.0000000010     1     3    10     1
 0.0431946666     1     3    10     2
 -0.0022554699     1     3    10     4
 -0.0000000002     1     3    10     5
 -0.0198134363     1     3    10    10
 -0.0000000002     1     3    10    13
 -0.0000019193     1     3    11     6
 -0.0151429434     1     3    11     7
 -0.0000000002     1     3    11     9
 -0.0197255263     1     3    11    11
 -0.0151429434     1     3    12     6
 0.0000019193     1     3    12     7
 0.0000000002     1     3    12     8
 -0.0197255263     1     3    12    12
 -0.1354517619     1     3    13     1
 -0.0095724422     1     3    13     5
 -0.0000000002     1     3    13    10
 -0.0082175455     1     3    13    13
 0.0002994243     1     4     2     1
 0.0000005731     1     4     2     3
 0.0000098722     1     4     2     5
 0.0000075282     1     4     2    13
 0.0000000075     1     4     3     1
 -0.3471022204     1     4     3     2
 -0.0009579001     1     4     3    10
 -0.5721422025     1     4     4     1
 0.0003546962     1     4     4     3
 0.0004249004     1     4     4     5
 0.0003435723     1     4     4    13
 -0.0000000017     1     4     5     1
 0.0784238513     1     4     5     2
 0.0000000001     1     4     5     5
 0.0190429545     1     4     5    10
 0.0000000001     1     4     5    13
 0.0000000002     1     4     6     6
 -0.0182709069     1     4     6     8
 0.0028310647     1     4     6     9
 0.0000000003     1     4     6    12
 0.0000000002     1     4     7     7
 0.0028310647     1     4     7     8
 0.0182709069     1     4     7     9
 0.0000000003     1     4     7    11
 -0.0186181162     1     4     8     6
 0.0028848645     1     4     8     7
 0.0000000003     1     4     8     8
 0.0036719422     1     4     8    11
 -0.0237175648     1     4     8    12
 0.0028848645     1     4     9     6
 0.0186181162     1     4     9     7
 0.0000000003     1     4     9     9
 0.0237175648     1     4     9    11
 0.0036719422     1     4     9    12
 0.0334812217     1     4    10     1
 0.0022554699     1     4    10     3
 0.0187977169     1     4    10     5
 0.0000000003     1     4    10    10
 0.0167087654     1     4    10    13
 0.0000000002     1     4    11     7
 0.0025321433     1     4    11     8
 0.0163554518     1     4    11     9
 0.0000000002     1     4    11    11
 0.0000000002     1     4    12     6
 -0.0163554518     1     4    12     8
 0.0025321433     1     4    12     9
 0.0000000002     1     4    12    12
 0.0000000029     1     4    13     1
 -0.1326259221     1     4    13     2
 0.0000000001     1     4    13     5
 0.0115035165     1     4    13    10
 0.0000000001     1     4    13    13
 0.0030382340     1     5     2     2
 -0.0000098722     1     5     2     4
 -0.0000894263     1     5     2    10
 -0.0038805874     1     5     3     1
 0.0022372655     1     5     3     3
 -0.0000000001     1     5     3    10
 -0.0047270688     1     5     3    13
 -0.0000000017     1     5     4     1
 0.0784139791     1     5     4     2
 -0.0004249004     1     5     4     4
 0.0002452376     1     5     4    10
 -0.5363405896     1     5     5     1
 0.0176348043     1     5     5     3
 -0.0000000001     1     5     5     4
 0.0066804243     1     5     5    13
 0.0031746637     1     5     6     6
 0.0000002095     1     5     6    11
 0.0016528716     1     5     6    12
 0.0031746637     1     5     7     7
 0.0016528716     1     5     7    11
 -0.0000002095     1     5     7    12
 0.0032133594     1     5     8     8
 0.0032133594     1     5     9     9
 -0.0000000068     1     5    10     1
 0.3157645026     1     5    10     2
 0.0000000002     1     5    10     3
 -0.0187977169     1     5    10     4
 0.0072241448     1     5    10    10
 0.0000000001     1     5    10    13
 0.0000002560     1     5    11     6
 0.0020197293     1     5    11     7
 0.0042484108     1     5    11    11
 0.0020197293     1     5    12     6
 -0.0000002560     1     5    12     7
 0.0042484108     1     5    12    12
 -0.0975211983     1     5    13     1
 0.0095724422     1     5    13     3
 -0.0000000001     1     5    13     4
 0.0000000001     1     5    13    10
 0.0126075481     1     5    13    13
 0.0000433046     1     6     2     8
 -0.0000067100     1     6     2     9
 -0.0000009620     1     6     3    11
 -0.0075891404     1     6     3    12
 0.0003472093     1     6     4     8
 -0.0000537998     1     6     4     9
 0.0000000001     1     6     4    12
 -0.0000000465     1     6     5    11
 -0.0003668577     1     6     5    12
 -0.5322127991     1     6     6     1
 0.0179143728     1     6     6     3
 -0.0000000002     1     6     6     4
 -0.0031746637     1     6     6     5
 0.0074294746     1     6     6    13
 0.0000000069     1     6     8     1
 -0.3213439917     1     6     8     2
 -0.0000000002     1     6     8     3
 0.0186181162     1     6     8     4
 -0.0042534282     1     6     8    10
 -0.0000000001     1     6     8    13
 -0.0000000011     1     6     9     1
 0.0497920339     1     6     9     2
 -0.0028848645     1     6     9     4
 0.0006590659     1     6     9    10
 0.0000609122     1     6    10     8
 -0.0000094383     1     6    10     9
 -0.0000258099     1     6    11     1
 0.0000019193     1     6    11     3
 -0.0000002560     1     6    11     5
 0.0000017166     1     6    11    13
 -0.2036276799     1     6    12     1
 0.0151429434     1     6    12     3
 -0.0000000002     1     6    12     4
 -0.0020197293     1     6    12     5
 0.0135433717     1     6    12    13
 0.0000002275     1     6    13    11
 0.0017947996     1     6    13    12
 -0.0000067100     1     7     2     8
 -0.0000433046     1     7     2     9
 -0.0075891404     1     7     3    11
 0.0000009620     1     7     3    12
 -0.0000537998     1     7     4     8
 -0.0003472093     1     7     4     9
 0.0000000001     1     7     4    11
 -0.0003668577     1     7     5    11
 0.0000000465     1     7     5    12
 -0.5322127991     1     7     7     1
 0.0179143728     1     7     7     3
 -0.0000000002     1     7     7     4
 -0.0031746637     1     7     7     5
 0.0074294746     1     7     7    13
 -0.0000000011     1     7     8     1
 0.0497920339     1     7     8     2
 -0.0028848645     1     7     8     4
 0.0006590659     1     7     8    10
 -0.0000000069     1     7     9     1
 0.3213439917     1     7     9     2
 0.0000000002     1     7     9     3
 -0.0186181162     1     7     9     4
 0.0042534282     1     7     9    10
 0.0000000001     1     7     9    13
 -0.0000094383     1     7    10     8
 -0.0000609122     1     7    10     9
 -0.2036276799     1     7    11     1
 0.0151429434     1     7    11     3
 -0.0000000002     1     7    11     4
 -0.0020197293     1     7    11     5
 0.0135433717     1     7    11    13
 0.0000258099     1     7    12     1
 -0.0000019193     1     7    12     3
 0.0000002560     1     7    12     5
 -0.0000017166     1     7    12    13
 0.0017947996     1     7    13    11
 -0.0000002275     1     7    13    12
 -0.0000433046     1     8     2     6
 0.0000067100     1     8     2     7
 0.0000076744     1     8     2    11
 -0.0000495697     1     8     2    12
 0.0000000001     1     8     3    12
 -0.0003472093     1     8     4     6
 0.0000537998     1     8     4     7
 0.0011397989     1     8     4    11
 -0.0073621130     1     8     4    12
 0.0000000069     1     8     6     1
 -0.3213872963     1     8     6     2
 -0.0000000002     1     8     6     3
 0.0182709069     1     8     6     4
 -0.0043143404     1     8     6    10
 -0.0000000001     1     8     6    13
 -0.0000000011     1     8     7     1
 0.0497987439     1     8     7     2
 -0.0028310647     1     8     7     4
 0.0006685042     1     8     7    10
 -0.5464238690     1     8     8     1
 0.0187420914     1     8     8     3
 -0.0000000003     1     8     8     4
 -0.0032133594     1     8     8     5
 0.0091818864     1     8     8    13
 -0.0000609122     1     8    10     6
 0.0000094383     1     8    10     7
 -0.0001636967     1     8    10    11
 0.0010573384     1     8    10    12
 -0.0000000007     1     8    11     1
 0.0326500408     1     8    11     2
 -0.0025321433     1     8    11     4
 0.0004735353     1     8    11    10
 0.0000000045     1     8    12     1
 -0.2108909680     1     8    12     2
 -0.0000000002     1     8    12     3
 0.0163554518     1     8    12     4
 -0.0030586277     1     8    12    10
 -0.0000000002     1     8    12    13
 0.0000067100     1     9     2     6
 0.0000433046     1     9     2     7
 0.0000495697     1     9     2    11
 0.0000076744     1     9     2    12
 -0.0000000001     1     9     3    11
 0.0000537998     1     9     4     6
 0.0003472093     1     9     4     7
 0.0073621130     1     9     4    11
 0.0011397989     1     9     4    12
 -0.0000000011     1     9     6     1
 0.0497987439     1     9     6     2
 -0.0028310647     1     9     6     4
 0.0006685042     1     9     6    10
 -0.0000000069     1     9     7     1
 0.3213872963     1     9     7     2
 0.0000000002     1     9     7     3
 -0.0182709069     1     9     7     4
 0.0043143404     1     9     7    10
 0.0000000001     1     9     7    13
 -0.5464238690     1     9     9     1
 0.0187420914     1     9     9     3
 -0.0000000003     1     9     9     4
 -0.0032133594     1     9     9     5
 0.0091818864     1     9     9    13
 0.0000094383     1     9    10     6
 0.0000609122     1     9    10     7
 -0.0010573384     1     9    10    11
 -0.0001636967     1     9    10    12
 -0.0000000045     1     9    11     1
 0.2108909680     1     9    11     2
 0.0000000002     1     9    11     3
 -0.0163554518     1     9    11     4
 0.0030586277     1     9    11    10
 0.0000000002     1     9    11    13
 -0.0000000007     1     9    12     1
 0.0326500408     1     9    12     2
 -0.0025321433     1     9    12     4
 0.0004735353     1     9    12    10
 0.0032371044     1    10     2     1
 0.0000059022     1    10     2     3
 0.0000894263     1    10     2     5
 0.0000683616     1    10     2    13
 -0.0000000010     1    10     3     1
 0.0432005688     1    10     3     2
 0.0009579001     1    10     3     4
 0.0000000001     1    10     3     5
 0.0334812217     1    10     4     1
 0.0032133700     1    10     4     3
 -0.0002452376     1    10     4     5
 0.0052052489     1    10     4    13
 -0.0000000068     1    10     5     1
 0.3158539289     1    10     5     2
 0.0000000003     1    10     5     3
 -0.0190429545     1    10     5     4
 0.0043143404     1    10     6     8
 -0.0006685042     1    10     6     9
 -0.0006685042     1    10     7     8
 -0.0043143404     1    10     7     9
 0.0042534282     1    10     8     6
 -0.0006590659     1    10     8     7
 -0.0006372320     1    10     8    11
 0.0041159661     1    10     8    12
 -0.0006590659     1    10     9     6
 -0.0042534282     1    10     9     7
 -0.0041159661     1    10     9    11
 -0.0006372320     1    10     9    12
 -0.5757256652     1    10    10     1
 0.0198134363     1    10    10     3
 -0.0000000003     1    10    10     4
 -0.0072241448     1    10    10     5
 0.0064127292     1    10    10    13
 -0.0004735353     1    10    11     8
 -0.0030586277     1    10    11     9
 0.0030586277     1    10    12     8
 -0.0004735353     1    10    12     9
 -0.0000000042     1    10    13     1
 0.1922725842     1    10    13     2
 0.0000000002     1    10    13     3
 -0.0115035165     1    10    13     4
 -0.0000000001     1    10    13     5
 0.0000000001     1    10    13    13
 -0.0000076744     1    11     2     8
 -0.0000495697     1    11     2     9
 0.0000009620     1    11     3     6
 0.0075891404     1    11     3     7
 0.0000000001     1    11     3     9
 -0.0000000001     1    11     4     7
 -0.0011397989     1    11     4     8
 -0.0073621130     1    11     4     9
 0.0000000465     1    11     5     6
 0.0003668577     1    11     5     7
 -0.0000258099     1    11     6     1
 0.0000028813     1    11     6     3
 -0.0000002095     1    11     6     5
 0.0000014891     1    11     6    13
 -0.2036276799     1    11     7     1
 0.0227320838     1    11     7     3
 -0.0000000003     1    11     7     4
 -0.0016528716     1    11     7     5
 0.0117485721     1    11     7    13
 -0.0000000007     1    11     8     1
 0.0326423664     1    11     8     2
 -0.0036719422     1    11     8     4
 0.0006372320     1    11     8    10
 -0.0000000045     1    11     9     1
 0.2108413983     1    11     9     2
 0.0000000003     1    11     9     3
 -0.0237175648     1    11     9     4
 0.0041159661     1    11     9    10
 0.0000000002     1    11     9    13
 0.0001636967     1    11    10     8
 0.0010573384     1    11    10     9
 -0.5313609784     1    11    11     1
 0.0197255263     1    11    11     3
 -0.0000000002     1    11    11     4
 -0.0042484108     1    11    11     5
 0.0162192549     1    11    11    13
 -0.0000002275     1    11    13     6
 -0.0017947996     1    11    13     7
 0.0000495697     1    12     2     8
 -0.0000076744     1    12     2     9
 0.0075891404     1    12     3     6
 -0.0000009620     1    12     3     7
 -0.0000000001     1    12     3     8
 -0.0000000001     1    12     4     6
 0.0073621130     1    12     4     8
 -0.0011397989     1    12     4     9
 0.0003668577     1    12     5     6
 -0.0000000465     1    12     5     7
 -0.2036276799     1    12     6     1
 0.0227320838     1    12     6     3
 -0.0000000003     1    12     6     4
 -0.0016528716     1    12     6     5
 0.0117485721     1    12     6    13
 0.0000258099     1    12     7     1
 -0.0000028813     1    12     7     3
 0.0000002095     1    12     7     5
 -0.0000014891     1    12     7    13
 0.0000000045     1    12     8     1
 -0.2108413983     1    12     8     2
 -0.0000000003     1    12     8     3
 0.0237175648     1    12     8     4
 -0.0041159661     1    12     8    10
 -0.0000000002     1    12     8    13
 -0.0000000007     1    12     9     1
 0.0326423664     1    12     9     2
 -0.0036719422     1    12     9     4
 0.0006372320     1    12     9    10
 -0.0010573384     1    12    10     8
 0.0001636967     1    12    10     9
 -0.5313609784     1    12    12     1
 0.0197255263     1    12    12     3
 -0.0000000002     1    12    12     4
 -0.0042484108     1    12    12     5
 0.0162192549     1    12    12    13
 -0.0017947996     1    12    13     6
 0.0000002275     1    12    13     7
 0.0022889131     1    13     2     2
 -0.0000075282     1    13     2     4
 -0.0000683616     1    13     2    10
 -0.1354517619     1    13     3     1
 0.0024482704     1    13     3     3
 0.0047270688     1    13     3     5
 0.0000000029     1    13     4     1
 -0.1326334503     1    13     4     2
 -0.0003435723     1    13     4     4
 -0.0052052489     1    13     4    10
 -0.0975211983     1    13     5     1
 0.0142995110     1    13     5     3
 -0.0000000001     1    13     5     4
 -0.0066804243     1    13     5     5
 -0.0074294746     1    13     6     6
 0.0000000001     1    13     6     8
 -0.0000014891     1    13     6    11
 -0.0117485721     1    13     6    12
 -0.0074294746     1    13     7     7
 -0.0000000001     1    13     7     9
 -0.0117485721     1    13     7    11
 0.0000014891     1    13     7    12
 0.0000000001     1    13     8     6
 -0.0091818864     1    13     8     8
 0.0000000002     1    13     8    12
 -0.0000000001     1    13     9     7
 -0.0091818864     1    13     9     9
 -0.0000000002     1    13     9    11
 -0.0000000042     1    13    10     1
 0.1922042226     1    13    10     2
 0.0000000002     1    13    10     3
 -0.0167087654     1    13    10     4
 -0.0000000001     1    13    10     5
 -0.0064127292     1    13    10    10
 -0.0000017166     1    13    11     6
 -0.0135433717     1    13    11     7
 -0.0000000002     1    13    11     9
 -0.0162192549     1    13    11    11
 -0.0135433717     1    13    12     6
 0.0000017166     1    13    12     7
 0.0000000002     1    13    12     8
 -0.0162192549     1    13    12    12
 -0.5397190516     1    13    13     1
 0.0082175455     1    13    13     3
 -0.0000000001     1    13    13     4
 -0.0126075481     1    13    13     5
 -0.0000000001     1    13    13    10
 -0.2198088788     2     1     1     2
 0.0002994243     2     1     1     4
 0.0032371044     2     1     1    10
 -0.0001362628     2     1     3     2
 0.3471027935     2     1     3     4
 -0.0431946666     2     1     3    10
 0.3471022204     2     1     4     3
 -0.0784238513     2     1     4     5
 0.1326259221     2     1     4    13
 -0.0030382340     2     1     5     2
 -0.0784139791     2     1     5     4
 -0.3157645026     2     1     5    10
 0.3213439917     2     1     6     8
 -0.0497920339     2     1     6     9
 -0.0497920339     2     1     7     8
 -0.3213439917     2     1     7     9
 0.3213872963     2     1     8     6
 -0.0497987439     2     1     8     7
 -0.0326500408     2     1     8    11
 0.2108909680     2     1     8    12
 -0.0497987439     2     1     9     6
 -0.3213872963     2     1     9     7
 -0.2108909680     2     1     9    11
 -0.0326500408     2     1     9    12
 -0.0432005688     2     1    10     3
 -0.3158539289     2     1    10     5
 -0.1922725842     2     1    10    13
 -0.0326423664     2     1    11     8
 -0.2108413983     2     1    11     9
 0.2108413983     2     1    12     8
 -0.0326423664     2     1    12     9
 -0.0022889131     2     1    13     2
 0.1326334503     2     1    13     4
 -0.1922042226     2     1    13    10
 0.2198088788     2     2     1     1
 0.0001362628     2     2     1     3
 0.0030382340     2     2     1     5
 0.0022889131     2     2     1    13
 0.0001362628     2     2     3     1
 0.5647470232     2     2     3     3
 0.0000000075     2     2     3     4
 0.0038845288     2     2     3     5
 -0.0000000010     2     2     3    10
 0.1354558679     2     2     3    13
 0.0000000075     2     2     4     3
 0.5721415191     2     2     4     4
 -0.0000000017     2     2     4     5
 -0.0334905610     2     2     4    10
 0.0000000029     2     2     4    13
 0.0030382340     2     2     5     1
 0.0038845288     2     2     5     3
 -0.0000000017     2     2     5     4
 0.5364239358     2     2     5     5
 -0.0000000068     2     2     5    10
 0.0975851567     2     2     5    13
 0.5322560025     2     2     6     6
 0.0000000069     2     2     6     8
 -0.0000000011     2     2     6     9
 0.0000258162     2     2     6    11
 0.2036771383     2     2     6    12
 0.5322560025     2     2     7     7
 -0.0000000011     2     2     7     8
 -0.0000000069     2     2     7     9
 0.2036771383     2     2     7    11
 -0.0000258162     2     2     7    12
 0.0000000069     2     2     8     6
 -0.0000000011     2     2     8     7
 0.5463795164     2     2     8     8
 -0.0000000007     2     2     8    11
 0.0000000045     2     2     8    12
 -0.0000000011     2     2     9     6
 -0.0000000069     2     2     9     7
 0.5463795164     2     2     9     9
 -0.0000000045     2     2     9    11
 -0.0000000007     2     2     9    12
 -0.0000000010     2     2    10     3
 -0.0334905610     2     2    10     4
 -0.0000000068     2     2    10     5
 0.5756296516     2     2    10    10
 -0.0000000042     2     2    10    13
 0.0000258162     2     2    11     6
 0.2036771383     2     2    11     7
 -0.0000000007     2     2    11     8
 -0.0000000045     2     2    11     9
 0.5314170793     2     2    11    11
 0.2036771383     2     2    12     6
 -0.0000258162     2     2    12     7
 0.0000000045     2     2    12     8
 -0.0000000007     2     2    12     9
 0.5314170793     2     2    12    12
 0.0022889131     2     2    13     1
 0.1354558679     2     2    13     3
 0.0000000029     2     2    13     4
 0.0975851567     2     2    13     5
 -0.0000000042     2     2    13    10
 0.5397672327     2     2    13    13
 -0.0001362628     2     3     1     2
 0.0000005731     2     3     1     4
 0.0000059022     2     3     1    10
 -0.5647470232     2     3     3     2
 0.0001119495     2     3     3     4
 0.0026933537     2     3     3    10
 -0.0000000001     2     3     3    13
 -0.3471022204     2     3     4     1
 -0.0000000075     2     3     4     2
 0.0030930263     2     3     4     5
 0.0017156540     2     3     4    13
 -0.0038845288     2     3     5     2
 0.0021950853     2     3     5     4
 -0.0000000001     2     3     5     5
 0.0197402513     2     3     5    10
 -0.0000000001     2     3     5    13
 -0.0000000001     2     3     6     6
 -0.0185854169     2     3     6     8
 0.0028797978     2     3     6     9
 -0.0000000003     2     3     6    12
 -0.0000000001     2     3     7     7
 0.0028797978     2     3     7     8
 0.0185854169     2     3     7     9
 -0.0000000003     2     3     7    11
 -0.0178575628     2     3     8     6
 0.0027670173     2     3     8     7
 -0.0000000002     2     3     8     8
 0.0034967544     2     3     8    11
 -0.0225860030     2     3     8    12
 0.0027670173     2     3     9     6
 0.0178575628     2     3     9     7
 -0.0000000002     2     3     9     9
 0.0225860030     2     3     9    11
 0.0034967544     2     3     9    12
 0.0432005688     2     3    10     1
 0.0000000010     2     3    10     2
 0.0178983363     2     3    10     5
 -0.0000000003     2     3    10    10
 0.0146383910     2     3    10    13
 -0.0000000002     2     3    11     7
 0.0024205872     2     3    11     8
 0.0156348957     2     3    11     9
 -0.0000000002     2     3    11    11
 -0.0000000002     2     3    12     6
 -0.0156348957     2     3    12     8
 0.0024205872     2     3    12     9
 -0.0000000002     2     3    12    12
 -0.1354558679     2     3    13     2
 0.0011620653     2     3    13     4
 -0.0000000001     2     3    13     5
 0.0107291609     2     3    13    10
 -0.0000000001     2     3    13    13
 -0.0002994243     2     4     1     1
 -0.0000005731     2     4     1     3
 -0.0000098722     2     4     1     5
 -0.0000075282     2     4     1    13
 -0.3471027935     2     4     3     1
 -0.0000000075     2     4     3     2
 -0.0001119495     2     4     3     3
 0.0008979410     2     4     3     5
 0.0005535887     2     4     3    13
 -0.5721415191     2     4     4     2
 -0.0003803984     2     4     4    10
 0.0784139791     2     4     5     1
 0.0000000017     2     4     5     2
 -0.0021950853     2     4     5     3
 -0.0170633718     2     4     5     5
 0.0000000003     2     4     5    10
 -0.0146900512     2     4     5    13
 -0.0180174186     2     4     6     6
 -0.0000000002     2     4     6     8
 -0.0000028689     2     4     6    11
 -0.0226336117     2     4     6    12
 -0.0180174186     2     4     7     7
 0.0000000002     2     4     7     9
 -0.0226336117     2     4     7    11
 0.0000028689     2     4     7    12
 -0.0000000003     2     4     8     6
 -0.0198926699     2     4     8     8
 -0.0000000003     2     4     8    12
 0.0000000003     2     4     9     7
 -0.0198926699     2     4     9     9
 0.0000000003     2     4     9    11
 0.0334905610     2     4    10     2
 0.0000000003     2     4    10     5
 -0.0217502048     2     4    10    10
 0.0000000002     2     4    10    13
 -0.0000020126     2     4    11     6
 -0.0158782433     2     4    11     7
 0.0000000002     2     4    11     9
 -0.0208775451     2     4    11    11
 -0.0158782433     2     4    12     6
 0.0000020126     2     4    12     7
 -0.0000000002     2     4    12     8
 -0.0208775451     2     4    12    12
 -0.1326334503     2     4    13     1
 -0.0000000029     2     4    13     2
 -0.0011620653     2     4    13     3
 -0.0098532728     2     4    13     5
 0.0000000002     2     4    13    10
 -0.0100396791     2     4    13    13
 -0.0030382340     2     5     1     2
 0.0000098722     2     5     1     4
 0.0000894263     2     5     1    10
 -0.0038845288     2     5     3     2
 -0.0008979410     2     5     3     4
 0.0018419150     2     5     3    10
 0.0784238513     2     5     4     1
 0.0000000017     2     5     4     2
 -0.0030930263     2     5     4     3
 -0.0048367784     2     5     4    13
 -0.5364239358     2     5     5     2
 0.0000000001     2     5     5     3
 0.0170633718     2     5     5     4
 0.0000741605     2     5     5    10
 0.0001597297     2     5     6     8
 -0.0000247500     2     5     6     9
 -0.0000247500     2     5     7     8
 -0.0001597297     2     5     7     9
 0.0006616977     2     5     8     6
 -0.0001025296     2     5     8     7
 -0.0003281357     2     5     8    11
 0.0021194722     2     5     8    12
 -0.0001025296     2     5     9     6
 -0.0006616977     2     5     9     7
 -0.0021194722     2     5     9    11
 -0.0003281357     2     5     9    12
 0.3158539289     2     5    10     1
 0.0000000068     2     5    10     2
 -0.0178983363     2     5    10     3
 -0.0000000003     2     5    10     4
 0.0000000001     2     5    10    10