&FCI NORB= 19,NELEC= 14,MS2=0,
 ORBSYM=1,1,1,1,1,1,1,1,1,1,1,1,1,1,1,1,1,1,1
 ISYM=1,
&END
 0.2102506921     1     1     2     2
 -0.0002411580     1     1     2     4
 0.0000000001     1     1     2     5
 -0.0029479710     1     1     2    10
 0.0025125558     1     1     2    14
 -0.0019639221     1     1     2    18
 0.5604231590     1     1     3     3
 -0.0000000021     1     1     3     4
 0.0029218336     1     1     3     5
 0.0000000002     1     1     3    10
 0.1143361687     1     1     3    13
 0.0000000006     1     1     3    14
 -0.1171090927     1     1     3    15
 0.0000000007     1     1     3    18
 0.0133089709     1     1     3    19
 -0.0002411580     1     1     4     2
 -0.0000000021     1     1     4     3
 0.5674370681     1     1     4     4
 0.0000000004     1     1     4     5
 -0.0304723280     1     1     4    10
 -0.0000000007     1     1     4    13
 -0.1213428329     1     1     4    14
 0.0000000008     1     1     4    15
 -0.1064052856     1     1     4    18
 0.0000000001     1     1     5     2
 0.0029218336     1     1     5     3
 0.0000000004     1     1     5     4
 0.5291169671     1     1     5     5
 0.0000000019     1     1     5    10
 0.1297495892     1     1     5    13
 -0.0000000009     1     1     5    14
 0.1453824707     1     1     5    15
 0.0000000005     1     1     5    18
 0.0282544992     1     1     5    19
 0.5287134286     1     1     6     6
 -0.0000000019     1     1     6     8
 -0.0000000005     1     1     6     9
 0.1985875024     1     1     6    11
 -0.0454096111     1     1     6    12
 0.0000000010     1     1     6    16
 0.0000000005     1     1     6    17
 0.5287134286     1     1     7     7
 -0.0000000005     1     1     7     8
 0.0000000019     1     1     7     9
 0.0454096111     1     1     7    11
 0.1985875024     1     1     7    12
 -0.0000000005     1     1     7    16
 0.0000000010     1     1     7    17
 -0.0000000019     1     1     8     6
 -0.0000000005     1     1     8     7
 0.5412441735     1     1     8     8
 -0.0000000013     1     1     8    11
 -0.1583419244     1     1     8    16
 -0.1327694407     1     1     8    17
 -0.0000000005     1     1     9     6
 0.0000000019     1     1     9     7
 0.5412441735     1     1     9     9
 0.0000000013     1     1     9    12
 -0.1327694407     1     1     9    16
 0.1583419244     1     1     9    17
 -0.0029479710     1     1    10     2
 0.0000000002     1     1    10     3
 -0.0304723280     1     1    10     4
 0.0000000019     1     1    10     5
 0.5676887261     1     1    10    10
 0.0000000013     1     1    10    13
 -0.1551049392     1     1    10    14
 0.0000000007     1     1    10    15
 0.1299411303     1     1    10    18
 -0.0000000001     1     1    10    19
 0.1985875024     1     1    11     6
 0.0454096111     1     1    11     7
 -0.0000000013     1     1    11     8
 0.5257046794     1     1    11    11
 0.0000000015     1     1    11    16
 0.0000000012     1     1    11    17
 -0.0454096111     1     1    12     6
 0.1985875024     1     1    12     7
 0.0000000013     1     1    12     9
 0.5257046794     1     1    12    12
 -0.0000000012     1     1    12    16
 0.0000000015     1     1    12    17
 0.1143361687     1     1    13     3
 -0.0000000007     1     1    13     4
 0.1297495892     1     1    13     5
 0.0000000013     1     1    13    10
 0.5483851438     1     1    13    13
 -0.0000000004     1     1    13    14
 0.0403835450     1     1    13    15
 0.0000000015     1     1    13    18
 0.0010275520     1     1    13    19
 0.0025125558     1     1    14     2
 0.0000000006     1     1    14     3
 -0.1213428329     1     1    14     4
 -0.0000000009     1     1    14     5
 -0.1551049392     1     1    14    10
 -0.0000000004     1     1    14    13
 0.4757668319     1     1    14    14
 -0.0000000018     1     1    14    15
 -0.0235457959     1     1    14    18
 -0.0000000001     1     1    14    19
 -0.1171090927     1     1    15     3
 0.0000000008     1     1    15     4
 0.1453824707     1     1    15     5
 0.0000000007     1     1    15    10
 0.0403835450     1     1    15    13
 -0.0000000018     1     1    15    14
 0.4687545037     1     1    15    15
 -0.0000000001     1     1    15    18
 -0.0001815335     1     1    15    19
 0.0000000010     1     1    16     6
 -0.0000000005     1     1    16     7
 -0.1583419244     1     1    16     8
 -0.1327694407     1     1    16     9
 0.0000000015     1     1    16    11
 -0.0000000012     1     1    16    12
 0.5143222974     1     1    16    16
 0.0000000005     1     1    17     6
 0.0000000010     1     1    17     7
 -0.1327694407     1     1    17     8
 0.1583419244     1     1    17     9
 0.0000000012     1     1    17    11
 0.0000000015     1     1    17    12
 0.5143222974     1     1    17    17
 -0.0019639221     1     1    18     2
 0.0000000007     1     1    18     3
 -0.1064052856     1     1    18     4
 0.0000000005     1     1    18     5
 0.1299411303     1     1    18    10
 0.0000000015     1     1    18    13
 -0.0235457959     1     1    18    14
 -0.0000000001     1     1    18    15
 0.4905975374     1     1    18    18
 0.0000000006     1     1    18    19
 0.0133089709     1     1    19     3
 0.0282544992     1     1    19     5
 -0.0000000001     1     1    19    10
 0.0010275520     1     1    19    13
 -0.0000000001     1     1    19    14
 -0.0001815335     1     1    19    15
 0.0000000006     1     1    19    18
 0.4897449924     1     1    19    19
 -0.2102506921     1     2     2     1
 -0.0000986730     1     2     2     3
 -0.0027659978     1     2     2     5
 -0.0025435754     1     2     2    13
 -0.0022206024     1     2     2    15
 -0.0004045910     1     2     2    19
 0.3527646303     1     2     3     4
 -0.0364136419     1     2     3    10
 -0.0963324212     1     2     3    14
 -0.1122238824     1     2     3    18
 0.0002411580     1     2     4     1
 0.3527649850     1     2     4     3
 -0.0699940817     1     2     4     5
 0.1108339832     1     2     4    13
 -0.1271053812     1     2     4    15
 0.0028337352     1     2     4    19
 -0.0000000001     1     2     5     1
 -0.0700016236     1     2     5     4
 -0.3201270053     1     2     5    10
 0.1513390144     1     2     5    14
 -0.0810331926     1     2     5    18
 -0.0000000001     1     2     6     7
 0.3196429848     1     2     6     8
 0.0810105717     1     2     6     9
 -0.1698309857     1     2     6    16
 -0.0819464793     1     2     6    17
 -0.0000000001     1     2     7     6
 0.0810105717     1     2     7     8
 -0.3196429848     1     2     7     9
 0.0819464793     1     2     7    16
 -0.1698309857     1     2     7    17
 0.3196058086     1     2     8     6
 0.0810011498     1     2     8     7
 0.0000000001     1     2     8     8
 0.2119331033     1     2     8    11
 0.0049635855     1     2     8    12
 0.0810011498     1     2     9     6
 -0.3196058086     1     2     9     7
 0.0049635855     1     2     9    11
 -0.2119331033     1     2     9    12
 0.0029479710     1     2    10     1
 -0.0364094621     1     2    10     3
 -0.3200494262     1     2    10     5
 -0.2145353652     1     2    10    13
 -0.1169548944     1     2    10    15
 0.0157438976     1     2    10    19
 0.2119767463     1     2    11     8
 0.0049646077     1     2    11     9
 -0.2486861525     1     2    11    16
 -0.1987946209     1     2    11    17
 0.0049646077     1     2    12     8
 -0.2119767463     1     2    12     9
 0.1987946209     1     2    12    16
 -0.2486861525     1     2    12    17
 0.1108270209     1     2    13     4
 -0.2146074697     1     2    13    10
 0.0692934008     1     2    13    14
 -0.2436905104     1     2    13    18
 -0.0025125558     1     2    14     1
 -0.0963359691     1     2    14     3
 0.1512734207     1     2    14     5
 0.0692324635     1     2    14    13
 0.3008427195     1     2    14    15
 0.0227128784     1     2    14    19
 -0.1271115079     1     2    15     4
 -0.1170174858     1     2    15    10
 0.3008956349     1     2    15    14
 0.0149448556     1     2    15    18
 -0.1697902587     1     2    16     6
 0.0819268277     1     2    16     7
 -0.2486458989     1     2    16    11
 0.1987624430     1     2    16    12
 -0.0819268277     1     2    17     6
 -0.1697902587     1     2    17     7
 -0.1987624430     1     2    17    11
 -0.2486458989     1     2    17    12
 0.0019639221     1     2    18     1
 -0.1122212041     1     2    18     3
 -0.0809825933     1     2    18     5
 -0.2436434432     1     2    18    13
 0.0149856343     1     2    18    15
 -0.1045127635     1     2    18    19
 0.0028321408     1     2    19     4
 0.0157288672     1     2    19    10
 0.0227259187     1     2    19    14
 -0.1045224764     1     2    19    18
 0.0000986730     1     3     2     2
 -0.0000003547     1     3     2     4
 -0.0000041798     1     3     2    10
 0.0000035479     1     3     2    14
 -0.0000026783     1     3     2    18
 -0.5604231590     1     3     3     1
 -0.0019206868     1     3     3     5
 -0.0024375773     1     3     3    13
 -0.0013338306     1     3     3    15
 -0.0003230016     1     3     3    19
 0.0000000021     1     3     4     1
 -0.3527649850     1     3     4     2
 -0.0002817590     1     3     4     4
 -0.0028760546     1     3     4    10
 0.0028547147     1     3     4    14
 -0.0013947143     1     3     4    18
 -0.0029218336     1     3     5     1
 -0.0174796819     1     3     5     5
 -0.0174144267     1     3     5    13
 -0.0154263518     1     3     5    15
 -0.0013274879     1     3     5    19
 -0.0180474332     1     3     6     6
 -0.0221955925     1     3     6    11
 0.0050753105     1     3     6    12
 -0.0180474332     1     3     7     7
 -0.0050753105     1     3     7    11
 -0.0221955925     1     3     7    12
 -0.0187567166     1     3     8     8
 0.0173373191     1     3     8    16
 0.0145373132     1     3     8    17
 -0.0187567166     1     3     9     9
 -0.0000000001     1     3     9    12
 0.0145373132     1     3     9    16
 -0.0173373191     1     3     9    17
 -0.0000000002     1     3    10     1
 0.0364094621     1     3    10     2
 -0.0019054193     1     3    10     4
 -0.0198004095     1     3    10    10
 0.0178836781     1     3    10    14
 -0.0134147887     1     3    10    18
 -0.0148391035     1     3    11     6
 -0.0033931538     1     3    11     7
 -0.0197487254     1     3    11    11
 0.0033931538     1     3    12     6
 -0.0148391035     1     3    12     7
 -0.0197487254     1     3    12    12
 -0.1143361687     1     3    13     1
 -0.0116277684     1     3    13     5
 -0.0120719031     1     3    13    13
 -0.0102969318     1     3    13    15
 -0.0006852088     1     3    13    19
 -0.0000000006     1     3    14     1
 0.0963359691     1     3    14     2
 0.0012063867     1     3    14     4
 0.0124278104     1     3    14    10
 -0.0119995109     1     3    14    14
 0.0084129696     1     3    14    18
 0.1171090927     1     3    15     1
 -0.0097239148     1     3    15     5
 -0.0096102701     1     3    15    13
 -0.0092813170     1     3    15    15
 -0.0006871590     1     3    15    19
 0.0118117183     1     3    16     8
 0.0099041062     1     3    16     9
 -0.0192009381     1     3    16    16
 0.0099041062     1     3    17     8
 -0.0118117183     1     3    17     9
 -0.0192009381     1     3    17    17
 -0.0000000007     1     3    18     1
 0.1122212041     1     3    18     2
 -0.0008026811     1     3    18     4
 -0.0086736970     1     3    18    10
 0.0079519832     1     3    18    14
 -0.0066368005     1     3    18    18
 -0.0133089709     1     3    19     1
 -0.0009782355     1     3    19     5
 -0.0009098299     1     3    19    13
 -0.0009347262     1     3    19    15
 -0.0027942850     1     3    19    19
 0.0002411580     1     4     2     1
 0.0000003547     1     4     2     3
 0.0000075419     1     4     2     5
 0.0000069623     1     4     2    13
 0.0000061267     1     4     2    15
 0.0000015944     1     4     2    19
 0.0000000021     1     4     3     1
 -0.3527646303     1     4     3     2
 -0.0009706353     1     4     3    10
 0.0016483280     1     4     3    14
 -0.0005920332     1     4     3    18
 -0.5674370681     1     4     4     1
 0.0002817590     1     4     4     3
 0.0003025219     1     4     4     5
 0.0003783272     1     4     4    13
 0.0010666381     1     4     4    15
 0.0000402416     1     4     4    19
 -0.0000000004     1     4     5     1
 0.0700016236     1     4     5     2
 0.0188584839     1     4     5    10
 -0.0164205822     1     4     5    14
 0.0136006867     1     4     5    18
 -0.0179688754     1     4     6     8
 -0.0045540461     1     4     6     9
 0.0202773989     1     4     6    16
 0.0097842067     1     4     6    17
 -0.0045540461     1     4     7     8
 0.0179688754     1     4     7     9
 -0.0097842067     1     4     7    16
 0.0202773989     1     4     7    17
 -0.0182733696     1     4     8     6
 -0.0046312173     1     4     8     7
 -0.0238687304     1     4     8    11
 -0.0005590183     1     4     8    12
 -0.0046312173     1     4     9     6
 0.0182733696     1     4     9     7
 -0.0005590183     1     4     9    11
 0.0238687304     1     4     9    12
 0.0304723280     1     4    10     1
 0.0019054193     1     4    10     3
 0.0187091922     1     4    10     5
 0.0197514994     1     4    10    13
 0.0158214857     1     4    10    15
 0.0021600603     1     4    10    19
 -0.0164285632     1     4    11     8
 -0.0003847656     1     4    11     9
 0.0159023283     1     4    11    16
 0.0127119958     1     4    11    17
 -0.0003847656     1     4    12     8
 0.0164285632     1     4    12     9
 -0.0127119958     1     4    12    16
 0.0159023283     1     4    12    17
 0.0000000007     1     4    13     1
 -0.1108270209     1     4    13     2
 0.0137916381     1     4    13    10
 -0.0117102674     1     4    13    14
 0.0105911290     1     4    13    18
 0.1213428329     1     4    14     1
 -0.0012063867     1     4    14     3
 -0.0112914156     1     4    14     5
 -0.0120596547     1     4    14    13
 -0.0097016582     1     4    14    15
 -0.0013137219     1     4    14    19
 -0.0000000008     1     4    15     1
 0.1271115079     1     4    15     2
 0.0113924211     1     4    15    10
 -0.0100462431     1     4    15    14
 0.0082501783     1     4    15    18
 0.0137084253     1     4    16     6
 -0.0066145597     1     4    16     7
 0.0153765719     1     4    16    11
 -0.0122917169     1     4    16    12
 0.0066145597     1     4    17     6
 0.0137084253     1     4    17     7
 0.0122917169     1     4    17    11
 0.0153765719     1     4    17    12
 0.1064052856     1     4    18     1
 0.0008026811     1     4    18     3
 0.0079582110     1     4    18     5
 0.0090088554     1     4    18    13
 0.0064115930     1     4    18    15
 0.0015683648     1     4    18    19
 -0.0028321408     1     4    19     2
 0.0005535896     1     4    19    10
 -0.0002444878     1     4    19    14
 0.0008389570     1     4    19    18
 -0.0000000001     1     5     2     1
 0.0027659978     1     5     2     2
 -0.0000075419     1     5     2     4
 -0.0000775791     1     5     2    10
 0.0000655937     1     5     2    14
 -0.0000505993     1     5     2    18
 -0.0029218336     1     5     3     1
 0.0019206868     1     5     3     3
 -0.0057866583     1     5     3    13
 -0.0057024370     1     5     3    15
 -0.0003492524     1     5     3    19
 -0.0000000004     1     5     4     1
 0.0699940817     1     5     4     2
 -0.0003025219     1     5     4     4
 0.0001492917     1     5     4    10
 -0.0051291666     1     5     4    14
 0.0056424757     1     5     4    18
 -0.5291169671     1     5     5     1
 0.0174796819     1     5     5     3
 0.0052479912     1     5     5    13
 -0.0072237929     1     5     5    15
 0.0083292729     1     5     5    19
 0.0028407972     1     5     6     6
 0.0014435266     1     5     6    11
 -0.0003300811     1     5     6    12
 0.0028407972     1     5     7     7
 0.0003300811     1     5     7    11
 0.0014435266     1     5     7    12
 0.0028777658     1     5     8     8
 -0.0021560472     1     5     8    16
 -0.0018078419     1     5     8    17
 0.0028777658     1     5     9     9
 -0.0018078419     1     5     9    16
 0.0021560472     1     5     9    17
 -0.0000000019     1     5    10     1
 0.3200494262     1     5    10     2
 -0.0187091922     1     5    10     4
 0.0064218846     1     5    10    10
 0.0037081991     1     5    10    14
 0.0120976580     1     5    10    18
 0.0017487368     1     5    11     6
 0.0003998714     1     5    11     7
 0.0037939530     1     5    11    11
 -0.0003998714     1     5    12     6
 0.0017487368     1     5    12     7
 0.0037939530     1     5    12    12
 -0.1297495892     1     5    13     1
 0.0116277684     1     5    13     3
 0.0131623506     1     5    13    13
 -0.0054912136     1     5    13    15
 0.0042464026     1     5    13    19
 0.0000000009     1     5    14     1
 -0.1512734207     1     5    14     2
 0.0112914156     1     5    14     4
 -0.0031813982     1     5    14    10
 -0.0066017543     1     5    14    14
 -0.0086815544     1     5    14    18
 -0.1453824707     1     5    15     1
 0.0097239148     1     5    15     3
 0.0068805228     1     5    15    13
 -0.0066930961     1     5    15    15
 0.0029767905     1     5    15    19
 -0.0012995215     1     5    16     8
 -0.0010896466     1     5    16     9
 0.0025999716     1     5    16    16
 -0.0010896466     1     5    17     8
 0.0012995215     1     5    17     9
 0.0025999716     1     5    17    17
 -0.0000000005     1     5    18     1
 0.0809825933     1     5    18     2
 -0.0079582110     1     5    18     4
 0.0021603155     1     5    18    10
 0.0054588045     1     5    18    14
 0.0079371510     1     5    18    18
 -0.0282544992     1     5    19     1
 0.0009782355     1     5    19     3
 -0.0043411438     1     5    19    13
 -0.0054749186     1     5    19    15
 0.0010433990     1     5    19    19
 0.0000371762     1     6     2     8
 0.0000094219     1     6     2     9
 -0.0000407270     1     6     2    16
 -0.0000196516     1     6     2    17
 -0.0073564890     1     6     3    11
 0.0016821567     1     6     3    12
 0.0003044942     1     6     4     8
 0.0000771712     1     6     4     9
 0.0065689736     1     6     4    16
 0.0031696470     1     6     4    17
 -0.0003052102     1     6     5    11
 0.0000697903     1     6     5    12
 -0.5287134286     1     6     6     1
 0.0180474332     1     6     6     3
 -0.0028407972     1     6     6     5
 0.0060631954     1     6     6    13
 -0.0085329078     1     6     6    15
 -0.0037816476     1     6     6    19
 0.0000000001     1     6     7     2
 0.0000000019     1     6     8     1
 -0.3196058086     1     6     8     2
 0.0182733696     1     6     8     4
 -0.0037166007     1     6     8    10
 -0.0056046983     1     6     8    14
 -0.0069080467     1     6     8    18
 0.0000000005     1     6     9     1
 -0.0810011498     1     6     9     2
 0.0046312173     1     6     9     4
 -0.0009419383     1     6     9    10
 -0.0014204592     1     6     9    14
 -0.0017507809     1     6     9    18
 0.0000453735     1     6    10     8
 0.0000114994     1     6    10     9
 -0.0003961316     1     6    10    16
 -0.0001911406     1     6    10    17
 -0.1985875024     1     6    11     1
 0.0148391035     1     6    11     3
 -0.0017487368     1     6    11     5
 0.0111780331     1     6    11    13
 -0.0108757189     1     6    11    15
 -0.0012136796     1     6    11    19
 0.0454096111     1     6    12     1
 -0.0033931538     1     6    12     3
 0.0003998714     1     6    12     5
 -0.0025560024     1     6    12    13
 0.0024868743     1     6    12    15
 0.0002775236     1     6    12    19
 0.0013649814     1     6    13    11
 -0.0003121207     1     6    13    12
 0.0000188811     1     6    14     8
 0.0000047852     1     6    14     9
 0.0010393970     1     6    14    16
 0.0005015276     1     6    14    17
 -0.0017837568     1     6    15    11
 0.0004078792     1     6    15    12
 -0.0000000010     1     6    16     1
 0.1697902587     1     6    16     2
 -0.0137084253     1     6    16     4
 0.0021191049     1     6    16    10
 0.0091471778     1     6    16    14
 0.0099801918     1     6    16    18
 -0.0000000005     1     6    17     1
 0.0819268277     1     6    17     2
 -0.0066145597     1     6    17     4
 0.0010225059     1     6    17    10
 0.0044136765     1     6    17    14
 0.0048156206     1     6    17    18
 0.0002399997     1     6    18     8
 0.0000608257     1     6    18     9
 0.0028758356     1     6    18    16
 0.0013876420     1     6    18    17
 0.0034281296     1     6    19    11
 -0.0007838863     1     6    19    12
 0.0000094219     1     7     2     8
 -0.0000371762     1     7     2     9
 0.0000196516     1     7     2    16
 -0.0000407270     1     7     2    17
 -0.0016821567     1     7     3    11
 -0.0073564890     1     7     3    12
 0.0000771712     1     7     4     8
 -0.0003044942     1     7     4     9
 -0.0031696470     1     7     4    16
 0.0065689736     1     7     4    17
 -0.0000697903     1     7     5    11
 -0.0003052102     1     7     5    12
 0.0000000001     1     7     6     2
 -0.5287134286     1     7     7     1
 0.0180474332     1     7     7     3
 -0.0028407972     1     7     7     5
 0.0060631954     1     7     7    13
 -0.0085329078     1     7     7    15
 -0.0037816476     1     7     7    19
 0.0000000005     1     7     8     1
 -0.0810011498     1     7     8     2
 0.0046312173     1     7     8     4
 -0.0009419383     1     7     8    10
 -0.0014204592     1     7     8    14
 -0.0017507809     1     7     8    18
 -0.0000000019     1     7     9     1
 0.3196058086     1     7     9     2
 -0.0182733696     1     7     9     4
 0.0037166007     1     7     9    10
 0.0056046983     1     7     9    14
 0.0069080467     1     7     9    18
 0.0000114994     1     7    10     8
 -0.0000453735     1     7    10     9
 0.0001911406     1     7    10    16
 -0.0003961316     1     7    10    17
 -0.0454096111     1     7    11     1
 0.0033931538     1     7    11     3
 -0.0003998714     1     7    11     5
 0.0025560024     1     7    11    13
 -0.0024868743     1     7    11    15
 -0.0002775236     1     7    11    19
 -0.1985875024     1     7    12     1
 0.0148391035     1     7    12     3
 -0.0017487368     1     7    12     5
 0.0111780331     1     7    12    13
 -0.0108757189     1     7    12    15
 -0.0012136796     1     7    12    19
 0.0003121207     1     7    13    11
 0.0013649814     1     7    13    12
 0.0000047852     1     7    14     8
 -0.0000188811     1     7    14     9
 -0.0005015276     1     7    14    16
 0.0010393970     1     7    14    17
 -0.0004078792     1     7    15    11
 -0.0017837568     1     7    15    12
 0.0000000005     1     7    16     1
 -0.0819268277     1     7    16     2
 0.0066145597     1     7    16     4
 -0.0010225059     1     7    16    10
 -0.0044136765     1     7    16    14
 -0.0048156206     1     7    16    18
 -0.0000000010     1     7    17     1
 0.1697902587     1     7    17     2
 -0.0137084253     1     7    17     4
 0.0021191049     1     7    17    10
 0.0091471778     1     7    17    14
 0.0099801918     1     7    17    18
 0.0000608257     1     7    18     8
 -0.0002399997     1     7    18     9
 -0.0013876420     1     7    18    16
 0.0028758356     1     7    18    17
 0.0007838863     1     7    19    11
 0.0034281296     1     7    19    12
 -0.0000371762     1     8     2     6
 -0.0000094219     1     8     2     7
 -0.0000436430     1     8     2    11
 -0.0000010222     1     8     2    12
 0.0055256008     1     8     3    16
 0.0046332070     1     8     3    17
 -0.0003044942     1     8     4     6
 -0.0000771712     1     8     4     7
 -0.0074401672     1     8     4    11
 -0.0001742527     1     8     4    12
 -0.0008565257     1     8     5    16
 -0.0007181953     1     8     5    17
 0.0000000019     1     8     6     1
 -0.3196429848     1     8     6     2
 0.0179688754     1     8     6     4
 -0.0037619742     1     8     6    10
 -0.0056235794     1     8     6    14
 -0.0071480464     1     8     6    18
 0.0000000005     1     8     7     1
 -0.0810105717     1     8     7     2
 0.0045540461     1     8     7     4
 -0.0009534377     1     8     7    10
 -0.0014252444     1     8     7    14
 -0.0018116066     1     8     7    18
 -0.5412441735     1     8     8     1
 -0.0000000001     1     8     8     2
 0.0187567166     1     8     8     3
 -0.0028777658     1     8     8     5
 0.0075242905     1     8     8    13
 -0.0088018761     1     8     8    15
 -0.0037887487     1     8     8    19
 -0.0000453735     1     8    10     6
 -0.0000114994     1     8    10     7
 0.0009223868     1     8    10    11
 0.0000216028     1     8    10    12
 0.0000000013     1     8    11     1
 -0.2119767463     1     8    11     2
 0.0164285632     1     8    11     4
 -0.0026828770     1     8    11    10
 -0.0097697203     1     8    11    14
 -0.0114447876     1     8    11    18
 -0.0049646077     1     8    12     2
 0.0003847656     1     8    12     4
 -0.0000628344     1     8    12    10
 -0.0002288121     1     8    12    14
 -0.0002680430     1     8    12    18
 -0.0003291851     1     8    13    16
 -0.0002760212     1     8    13    17
 -0.0000188811     1     8    14     6
 -0.0000047852     1     8    14     7
 -0.0010953532     1     8    14    11
 -0.0000256538     1     8    14    12
 0.0010943024     1     8    15    16
 0.0009175708     1     8    15    17
 0.1583419244     1     8    16     1
 -0.0118117183     1     8    16     3
 0.0012995215     1     8    16     5
 -0.0080011008     1     8    16    13
 0.0091172525     1     8    16    15
 0.0008914636     1     8    16    19
 0.1327694407     1     8    17     1
 -0.0099041062     1     8    17     3
 0.0010896466     1     8    17     5
 -0.0067089097     1     8    17    13
 0.0076448011     1     8    17    15
 0.0007474908     1     8    17    19
 -0.0002399997     1     8    18     6
 -0.0000608257     1     8    18     7
 -0.0029557239     1     8    18    11
 -0.0000692246     1     8    18    12
 -0.0027508213     1     8    19    16
 -0.0023065591     1     8    19    17
 -0.0000094219     1     9     2     6
 0.0000371762     1     9     2     7
 -0.0000010222     1     9     2    11
 0.0000436430     1     9     2    12
 -0.0000000001     1     9     3    12
 0.0046332070     1     9     3    16
 -0.0055256008     1     9     3    17
 -0.0000771712     1     9     4     6
 0.0003044942     1     9     4     7
 -0.0001742527     1     9     4    11
 0.0074401672     1     9     4    12
 -0.0007181953     1     9     5    16
 0.0008565257     1     9     5    17
 0.0000000005     1     9     6     1
 -0.0810105717     1     9     6     2
 0.0045540461     1     9     6     4
 -0.0009534377     1     9     6    10
 -0.0014252444     1     9     6    14
 -0.0018116066     1     9     6    18
 -0.0000000019     1     9     7     1
 0.3196429848     1     9     7     2
 -0.0179688754     1     9     7     4
 0.0037619742     1     9     7    10
 0.0056235794     1     9     7    14
 0.0071480464     1     9     7    18
 -0.5412441735     1     9     9     1
 0.0187567166     1     9     9     3
 -0.0028777658     1     9     9     5
 0.0075242905     1     9     9    13
 -0.0088018761     1     9     9    15
 -0.0037887487     1     9     9    19
 -0.0000114994     1     9    10     6
 0.0000453735     1     9    10     7
 0.0000216028     1     9    10    11
 -0.0009223868     1     9    10    12
 -0.0049646077     1     9    11     2
 0.0003847656     1     9    11     4
 -0.0000628344     1     9    11    10
 -0.0002288121     1     9    11    14
 -0.0002680430     1     9    11    18
 -0.0000000013     1     9    12     1
 0.2119767463     1     9    12     2
 -0.0164285632     1     9    12     4
 0.0026828770     1     9    12    10
 0.0097697203     1     9    12    14
 0.0114447876     1     9    12    18
 -0.0002760212     1     9    13    16
 0.0003291851     1     9    13    17
 -0.0000047852     1     9    14     6
 0.0000188811     1     9    14     7
 -0.0000256538     1     9    14    11
 0.0010953532     1     9    14    12
 0.0009175708     1     9    15    16
 -0.0010943024     1     9    15    17
 0.1327694407     1     9    16     1
 -0.0099041062     1     9    16     3
 0.0010896466     1     9    16     5
 -0.0067089097     1     9    16    13
 0.0076448011     1     9    16    15
 0.0007474908     1     9    16    19
 -0.1583419244     1     9    17     1
 0.0118117183     1     9    17     3
 -0.0012995215     1     9    17     5
 0.0080011008     1     9    17    13
 -0.0091172525     1     9    17    15
 -0.0008914636     1     9    17    19
 -0.0000608257     1     9    18     6
 0.0002399997     1     9    18     7
 -0.0000692246     1     9    18    11
 0.0029557239     1     9    18    12
 -0.0023065591     1     9    19    16
 0.0027508213     1     9    19    17
 0.0029479710     1    10     2     1
 0.0000041798     1    10     2     3
 0.0000775791     1    10     2     5
 0.0000721045     1    10     2    13
 0.0000625914     1    10     2    15
 0.0000150304     1    10     2    19
 -0.0000000002     1    10     3     1
 0.0364136419     1    10     3     2
 0.0009706353     1    10     3     4
 0.0054558677     1    10     3    14
 -0.0047410917     1    10     3    18
 0.0304723280     1    10     4     1
 0.0028760546     1    10     4     3
 -0.0001492917     1    10     4     5