&FCI NORB= 13,NELEC= 14,MS2=0,
 ORBSYM=1,1,1,1,1,1,1,1,1,1,1,1,1
 ISYM=1,
&END
 0.2417934193     1     1     2     2
 0.0000000006     1     1     2     3
 -0.0004750732     1     1     2     4
 0.0000000091     1     1     2     5
 -0.0039450310     1     1     2    10
 0.0035234910     1     1     2    13
 0.0000000006     1     1     3     2
 0.5753201791     1     1     3     3
 -0.0000016201     1     1     3     4
 0.0074958384     1     1     3     5
 0.0000002963     1     1     3    10
 0.0000003750     1     1     3    13
 -0.0004750732     1     1     4     2
 -0.0000016201     1     1     4     3
 0.5822714320     1     1     4     4
 0.0000004815     1     1     4     5
 -0.0402536907     1     1     4    10
 -0.1170245095     1     1     4    13
 0.0000000091     1     1     5     2
 0.0074958384     1     1     5     3
 0.0000004815     1     1     5     4
 0.5539112924     1     1     5     5
 0.0000014863     1     1     5    10
 -0.0000008023     1     1     5    13
 0.5403398537     1     1     6     6
 -0.0000015189     1     1     6     8
 -0.0000001951     1     1     6     9
 0.1931323258     1     1     6    11
 -0.0642641644     1     1     6    12
 0.5403398537     1     1     7     7
 0.0000001951     1     1     7     8
 -0.0000015189     1     1     7     9
 0.0642641644     1     1     7    11
 0.1931323258     1     1     7    12
 -0.0000015189     1     1     8     6
 0.0000001951     1     1     8     7
 0.5578207195     1     1     8     8
 -0.0000009467     1     1     8    11
 0.0000004562     1     1     8    12
 -0.0000001951     1     1     9     6
 -0.0000015189     1     1     9     7
 0.5578207195     1     1     9     9
 -0.0000004562     1     1     9    11
 -0.0000009467     1     1     9    12
 -0.0039450310     1     1    10     2
 0.0000002963     1     1    10     3
 -0.0402536907     1     1    10     4
 0.0000014863     1     1    10     5
 0.5935222201     1     1    10    10
 -0.1675727106     1     1    10    13
 0.1931323258     1     1    11     6
 0.0642641644     1     1    11     7
 -0.0000009467     1     1    11     8
 -0.0000004562     1     1    11     9
 0.5444462892     1     1    11    11
 -0.0642641644     1     1    12     6
 0.1931323258     1     1    12     7
 0.0000004562     1     1    12     8
 -0.0000009467     1     1    12     9
 0.5444462892     1     1    12    12
 0.0035234910     1     1    13     2
 0.0000003750     1     1    13     3
 -0.1170245095     1     1    13     4
 -0.0000008023     1     1    13     5
 -0.1675727106     1     1    13    10
 0.4875827059     1     1    13    13
 -0.2417934193     1     2     2     1
 -0.0002727744     1     2     2     3
 -0.0000000012     1     2     2     4
 -0.0037340199     1     2     2     5
 -0.0000000096     1     2     2    10
 0.0000000086     1     2     2    13
 -0.0000000006     1     2     3     1
 -0.0000000020     1     2     3     3
 0.3330919834     1     2     3     4
 0.0000000002     1     2     3     5
 -0.0608978923     1     2     3    10
 -0.0768816805     1     2     3    13
 0.0004750732     1     2     4     1
 0.3330935407     1     2     4     3
 0.0000000019     1     2     4     4
 -0.0989882186     1     2     4     5
 -0.0000000001     1     2     4    10
 0.0000000006     1     2     4    13
 -0.0000000091     1     2     5     1
 0.0000000002     1     2     5     3
 -0.0990055991     1     2     5     4
 -0.0000000006     1     2     5     5
 -0.3056356574     1     2     5    10
 0.1648667143     1     2     5    13
 -0.0000000006     1     2     6     6
 0.3123017480     1     2     6     8
 0.0401176461     1     2     6     9
 -0.0000000006     1     2     6    11
 0.0000000002     1     2     6    12
 -0.0000000006     1     2     7     7
 -0.0401176461     1     2     7     8
 0.3123017480     1     2     7     9
 -0.0000000002     1     2     7    11
 -0.0000000006     1     2     7    12
 0.3122439213     1     2     8     6
 -0.0401102178     1     2     8     7
 0.0000000005     1     2     8     8
 0.1945629105     1     2     8    11
 -0.0937401696     1     2     8    12
 0.0401102178     1     2     9     6
 0.3122439213     1     2     9     7
 0.0000000005     1     2     9     9
 0.0937401696     1     2     9    11
 0.1945629105     1     2     9    12
 0.0039450310     1     2    10     1
 -0.0608857626     1     2    10     3
 -0.0000000001     1     2    10     4
 -0.3055141893     1     2    10     5
 0.0000000005     1     2    10    10
 -0.0000000001     1     2    10    13
 -0.0000000006     1     2    11     6
 -0.0000000002     1     2    11     7
 0.1946238607     1     2    11     8
 0.0937695353     1     2    11     9
 -0.0000000014     1     2    11    11
 0.0000000002     1     2    12     6
 -0.0000000006     1     2    12     7
 -0.0937695353     1     2    12     8
 0.1946238607     1     2    12     9
 -0.0000000014     1     2    12    12
 -0.0035234910     1     2    13     1
 -0.0768927226     1     2    13     3
 0.0000000006     1     2    13     4
 0.1647573004     1     2    13     5
 -0.0000000001     1     2    13    10
 -0.0000000024     1     2    13    13
 -0.0000000006     1     3     2     1
 0.0002727744     1     3     2     2
 -0.0000015573     1     3     2     4
 -0.0000121297     1     3     2    10
 0.0000110421     1     3     2    13
 -0.5753201791     1     3     3     1
 0.0000000020     1     3     3     2
 -0.0000000007     1     3     3     4
 -0.0031456761     1     3     3     5
 -0.0000000092     1     3     3    10
 0.0000000079     1     3     3    13
 0.0000016201     1     3     4     1
 -0.3330935407     1     3     4     2
 -0.0005853753     1     3     4     4
 -0.0000000095     1     3     4     5
 -0.0040484148     1     3     4    10
 0.0038935571     1     3     4    13
 -0.0074958384     1     3     5     1
 -0.0000000002     1     3     5     2
 -0.0000000078     1     3     5     4
 -0.0181380058     1     3     5     5
 -0.0000000493     1     3     5    10
 0.0000000470     1     3     5    13
 -0.0175853692     1     3     6     6
 0.0000000455     1     3     6     8
 0.0000000058     1     3     6     9
 -0.0215239896     1     3     6    11
 0.0071620388     1     3     6    12
 -0.0175853692     1     3     7     7
 -0.0000000058     1     3     7     8
 0.0000000455     1     3     7     9
 -0.0071620388     1     3     7    11
 -0.0215239896     1     3     7    12
 0.0000000431     1     3     8     6
 -0.0000000055     1     3     8     7
 -0.0186493548     1     3     8     8
 0.0000000500     1     3     8    11
 -0.0000000242     1     3     8    12
 0.0000000055     1     3     9     6
 0.0000000431     1     3     9     7
 -0.0186493548     1     3     9     9
 0.0000000242     1     3     9    11
 0.0000000500     1     3     9    12
 -0.0000002963     1     3    10     1
 0.0608857626     1     3    10     2
 -0.0032321825     1     3    10     4
 -0.0000000437     1     3    10     5
 -0.0196150099     1     3    10    10
 0.0189010639     1     3    10    13
 -0.0141781696     1     3    11     6
 -0.0047177407     1     3    11     7
 0.0000000347     1     3    11     8
 0.0000000168     1     3    11     9
 -0.0196599943     1     3    11    11
 0.0047177407     1     3    12     6
 -0.0141781696     1     3    12     7
 -0.0000000168     1     3    12     8
 0.0000000347     1     3    12     9
 -0.0196599943     1     3    12    12
 -0.0000003750     1     3    13     1
 0.0768927226     1     3    13     2
 0.0021722698     1     3    13     4
 0.0000000296     1     3    13     5
 0.0132351597     1     3    13    10
 -0.0136434239     1     3    13    13
 0.0004750732     1     4     2     1
 0.0000000012     1     4     2     2
 0.0000015573     1     4     2     3
 0.0000173805     1     4     2     5
 0.0000016201     1     4     3     1
 -0.3330919834     1     4     3     2
 0.0000000007     1     4     3     3
 -0.0000000017     1     4     3     5
 -0.0008162323     1     4     3    10
 0.0017212873     1     4     3    13
 -0.5822714320     1     4     4     1
 -0.0000000019     1     4     4     2
 0.0005853753     1     4     4     3
 0.0007605416     1     4     4     5
 0.0000000018     1     4     4    10
 -0.0000000046     1     4     4    13
 -0.0000004815     1     4     5     1
 0.0990055991     1     4     5     2
 0.0000000078     1     4     5     3
 0.0000000424     1     4     5     5
 0.0195158063     1     4     5    10
 -0.0176823396     1     4     5    13
 0.0000000432     1     4     6     6
 -0.0181756182     1     4     6     8
 -0.0023348028     1     4     6     9
 0.0000000519     1     4     6    11
 -0.0000000173     1     4     6    12
 0.0000000432     1     4     7     7
 0.0023348028     1     4     7     8
 -0.0181756182     1     4     7     9
 0.0000000173     1     4     7    11
 0.0000000519     1     4     7    12
 -0.0186222709     1     4     8     6
 0.0023921789     1     4     8     7
 0.0000000490     1     4     8     8
 -0.0218791097     1     4     8    11
 0.0105413280     1     4     8    12
 -0.0023921789     1     4     9     6
 -0.0186222709     1     4     9     7
 0.0000000490     1     4     9     9
 -0.0105413280     1     4     9    11
 -0.0218791097     1     4     9    12
 0.0402536907     1     4    10     1
 0.0000000001     1     4    10     2
 0.0032321825     1     4    10     3
 0.0189589419     1     4    10     5
 0.0000000544     1     4    10    10
 -0.0000000479     1     4    10    13
 0.0000000367     1     4    11     6
 0.0000000122     1     4    11     7
 -0.0151322502     1     4    11     8
 -0.0072906994     1     4    11     9
 0.0000000517     1     4    11    11
 -0.0000000122     1     4    12     6
 0.0000000367     1     4    12     7
 0.0072906994     1     4    12     8
 -0.0151322502     1     4    12     9
 0.0000000517     1     4    12    12
 0.1170245095     1     4    13     1
 -0.0000000006     1     4    13     2
 -0.0021722698     1     4    13     3
 -0.0121302721     1     4    13     5
 -0.0000000345     1     4    13    10
 0.0000000309     1     4    13    13
 -0.0000000091     1     5     2     1
 0.0037340199     1     5     2     2
 -0.0000173805     1     5     2     4
 -0.0001214681     1     5     2    10
 0.0001094139     1     5     2    13
 -0.0074958384     1     5     3     1
 -0.0000000002     1     5     3     2
 0.0031456761     1     5     3     3
 0.0000000017     1     5     3     4
 -0.0000000056     1     5     3    10
 0.0000000174     1     5     3    13
 -0.0000004815     1     5     4     1
 0.0989882186     1     5     4     2
 0.0000000095     1     5     4     3
 -0.0007605416     1     5     4     4
 0.0005568644     1     5     4    10
 -0.0055520675     1     5     4    13
 -0.5539112924     1     5     5     1
 0.0000000006     1     5     5     2
 0.0181380058     1     5     5     3
 -0.0000000424     1     5     5     4
 0.0000000012     1     5     5    10
 0.0000000125     1     5     5    13
 0.0040080859     1     5     6     6
 -0.0000000008     1     5     6     8
 -0.0000000001     1     5     6     9
 0.0020105715     1     5     6    11
 -0.0006690112     1     5     6    12
 0.0040080859     1     5     7     7
 0.0000000001     1     5     7     8
 -0.0000000008     1     5     7     9
 0.0006690112     1     5     7    11
 0.0020105715     1     5     7    12
 -0.0000000025     1     5     8     6
 0.0000000003     1     5     8     7
 0.0040378628     1     5     8     8
 -0.0000000061     1     5     8    11
 0.0000000029     1     5     8    12
 -0.0000000003     1     5     9     6
 -0.0000000025     1     5     9     7
 0.0040378628     1     5     9     9
 -0.0000000029     1     5     9    11
 -0.0000000061     1     5     9    12
 -0.0000014863     1     5    10     1
 0.3055141893     1     5    10     2
 0.0000000437     1     5    10     3
 -0.0189589419     1     5    10     4
 0.0092035380     1     5    10    10
 0.0014897965     1     5    10    13
 0.0024306799     1     5    11     6
 0.0008088009     1     5    11     7
 -0.0000000052     1     5    11     8
 -0.0000000025     1     5    11     9
 0.0053035598     1     5    11    11
 -0.0008088009     1     5    12     6
 0.0024306799     1     5    12     7
 0.0000000025     1     5    12     8
 -0.0000000052     1     5    12     9
 0.0053035598     1     5    12    12
 0.0000008023     1     5    13     1
 -0.1647573004     1     5    13     2
 -0.0000000296     1     5    13     3
 0.0121302721     1     5    13     4
 -0.0051401132     1     5    13    10
 -0.0054147758     1     5    13    13
 0.0000578267     1     6     2     8
 0.0000074283     1     6     2     9
 0.0000000024     1     6     3     8
 0.0000000003     1     6     3     9
 -0.0073458200     1     6     3    11
 0.0024442981     1     6     3    12
 0.0004466527     1     6     4     8
 0.0000573761     1     6     4     9
 0.0000000152     1     6     4    11
 -0.0000000051     1     6     4    12
 0.0000000017     1     6     5     8
 0.0000000002     1     6     5     9
 -0.0004201084     1     6     5    11
 0.0001397897     1     6     5    12
 -0.5403398537     1     6     6     1
 0.0000000006     1     6     6     2
 0.0175853692     1     6     6     3
 -0.0000000432     1     6     6     4
 -0.0040080859     1     6     6     5
 0.0000000031     1     6     6    10
 0.0000000193     1     6     6    13
 0.0000015189     1     6     8     1
 -0.3122439213     1     6     8     2
 -0.0000000431     1     6     8     3
 0.0186222709     1     6     8     4
 0.0000000025     1     6     8     5
 -0.0054080790     1     6     8    10
 -0.0045487920     1     6     8    13
 0.0000001951     1     6     9     1
 -0.0401102178     1     6     9     2
 -0.0000000055     1     6     9     3
 0.0023921789     1     6     9     4
 0.0000000003     1     6     9     5
 -0.0006947108     1     6     9    10
 -0.0005843285     1     6     9    13
 0.0000976185     1     6    10     8
 0.0000125399     1     6    10     9
 -0.0000000035     1     6    10    11
 0.0000000011     1     6    10    12
 -0.1931323258     1     6    11     1
 0.0000000006     1     6    11     2
 0.0141781696     1     6    11     3
 -0.0000000367     1     6    11     4
 -0.0024306799     1     6    11     5
 0.0000000083     1     6    11    10
 0.0000000189     1     6    11    13
 0.0642641644     1     6    12     1
 -0.0000000002     1     6    12     2
 -0.0047177407     1     6    12     3
 0.0000000122     1     6    12     4
 0.0008088009     1     6    12     5
 -0.0000000028     1     6    12    10
 -0.0000000063     1     6    12    13
 -0.0000076556     1     6    13     8
 -0.0000009834     1     6    13     9
 0.0000000019     1     6    13    11
 -0.0000000006     1     6    13    12
 -0.0000074283     1     7     2     8
 0.0000578267     1     7     2     9
 -0.0000000003     1     7     3     8
 0.0000000024     1     7     3     9
 -0.0024442981     1     7     3    11
 -0.0073458200     1     7     3    12
 -0.0000573761     1     7     4     8
 0.0004466527     1     7     4     9
 0.0000000051     1     7     4    11
 0.0000000152     1     7     4    12
 -0.0000000002     1     7     5     8
 0.0000000017     1     7     5     9
 -0.0001397897     1     7     5    11
 -0.0004201084     1     7     5    12
 -0.5403398537     1     7     7     1
 0.0000000006     1     7     7     2
 0.0175853692     1     7     7     3
 -0.0000000432     1     7     7     4
 -0.0040080859     1     7     7     5
 0.0000000031     1     7     7    10
 0.0000000193     1     7     7    13
 -0.0000001951     1     7     8     1
 0.0401102178     1     7     8     2
 0.0000000055     1     7     8     3
 -0.0023921789     1     7     8     4
 -0.0000000003     1     7     8     5
 0.0006947108     1     7     8    10
 0.0005843285     1     7     8    13
 0.0000015189     1     7     9     1
 -0.3122439213     1     7     9     2
 -0.0000000431     1     7     9     3
 0.0186222709     1     7     9     4
 0.0000000025     1     7     9     5
 -0.0054080790     1     7     9    10
 -0.0045487920     1     7     9    13
 -0.0000125399     1     7    10     8
 0.0000976185     1     7    10     9
 -0.0000000011     1     7    10    11
 -0.0000000035     1     7    10    12
 -0.0642641644     1     7    11     1
 0.0000000002     1     7    11     2
 0.0047177407     1     7    11     3
 -0.0000000122     1     7    11     4
 -0.0008088009     1     7    11     5
 0.0000000028     1     7    11    10
 0.0000000063     1     7    11    13
 -0.1931323258     1     7    12     1
 0.0000000006     1     7    12     2
 0.0141781696     1     7    12     3
 -0.0000000367     1     7    12     4
 -0.0024306799     1     7    12     5
 0.0000000083     1     7    12    10
 0.0000000189     1     7    12    13
 0.0000009834     1     7    13     8
 -0.0000076556     1     7    13     9
 0.0000000006     1     7    13    11
 0.0000000019     1     7    13    12
 -0.0000578267     1     8     2     6
 0.0000074283     1     8     2     7
 -0.0000609502     1     8     2    11
 0.0000293657     1     8     2    12
 -0.0000000024     1     8     3     6
 0.0000000003     1     8     3     7
 0.0000000153     1     8     3    11
 -0.0000000074     1     8     3    12
 -0.0004466527     1     8     4     6
 0.0000573761     1     8     4     7
 -0.0067468595     1     8     4    11
 0.0032506286     1     8     4    12
 -0.0000000017     1     8     5     6
 0.0000000002     1     8     5     7
 -0.0000000009     1     8     5    11
 0.0000000004     1     8     5    12
 0.0000015189     1     8     6     1
 -0.3123017480     1     8     6     2
 -0.0000000455     1     8     6     3
 0.0181756182     1     8     6     4
 0.0000000008     1     8     6     5
 -0.0055056975     1     8     6    10
 -0.0045411364     1     8     6    13
 -0.0000001951     1     8     7     1
 0.0401176461     1     8     7     2
 0.0000000058     1     8     7     3
 -0.0023348028     1     8     7     4
 -0.0000000001     1     8     7     5
 0.0007072507     1     8     7    10
 0.0005833451     1     8     7    13
 -0.5578207195     1     8     8     1
 -0.0000000005     1     8     8     2
 0.0186493548     1     8     8     3
 -0.0000000490     1     8     8     4
 -0.0040378628     1     8     8     5
 0.0000000064     1     8     8    10
 0.0000000186     1     8     8    13
 -0.0000976185     1     8    10     6
 0.0000125399     1     8    10     7
 0.0012759480     1     8    10    11
 -0.0006147502     1     8    10    12
 0.0000009467     1     8    11     1
 -0.1946238607     1     8    11     2
 -0.0000000347     1     8    11     3
 0.0151322502     1     8    11     4
 0.0000000052     1     8    11     5
 -0.0037274315     1     8    11    10
 -0.0075034214     1     8    11    13
 -0.0000004562     1     8    12     1
 0.0937695353     1     8    12     2
 0.0000000168     1     8    12     3
 -0.0072906994     1     8    12     4
 -0.0000000025     1     8    12     5
 0.0017958719     1     8    12    10
 0.0036151391     1     8    12    13
 0.0000076556     1     8    13     6
 -0.0000009834     1     8    13     7
 -0.0007669861     1     8    13    11
 0.0003695330     1     8    13    12
 -0.0000074283     1     9     2     6
 -0.0000578267     1     9     2     7
 -0.0000293657     1     9     2    11
 -0.0000609502     1     9     2    12
 -0.0000000003     1     9     3     6
 -0.0000000024     1     9     3     7
 0.0000000074     1     9     3    11
 0.0000000153     1     9     3    12
 -0.0000573761     1     9     4     6
 -0.0004466527     1     9     4     7
 -0.0032506286     1     9     4    11
 -0.0067468595     1     9     4    12
 -0.0000000002     1     9     5     6
 -0.0000000017     1     9     5     7
 -0.0000000004     1     9     5    11
 -0.0000000009     1     9     5    12
 0.0000001951     1     9     6     1
 -0.0401176461     1     9     6     2
 -0.0000000058     1     9     6     3
 0.0023348028     1     9     6     4
 0.0000000001     1     9     6     5
 -0.0007072507     1     9     6    10
 -0.0005833451     1     9     6    13
 0.0000015189     1     9     7     1
 -0.3123017480     1     9     7     2
 -0.0000000455     1     9     7     3
 0.0181756182     1     9     7     4
 0.0000000008     1     9     7     5
 -0.0055056975     1     9     7    10
 -0.0045411364     1     9     7    13
 -0.5578207195     1     9     9     1
 -0.0000000005     1     9     9     2
 0.0186493548     1     9     9     3
 -0.0000000490     1     9     9     4
 -0.0040378628     1     9     9     5
 0.0000000064     1     9     9    10
 0.0000000186     1     9     9    13
 -0.0000125399     1     9    10     6
 -0.0000976185     1     9    10     7
 0.0006147502     1     9    10    11
 0.0012759480     1     9    10    12
 0.0000004562     1     9    11     1
 -0.0937695353     1     9    11     2
 -0.0000000168     1     9    11     3
 0.0072906994     1     9    11     4
 0.0000000025     1     9    11     5
 -0.0017958719     1     9    11    10
 -0.0036151391     1     9    11    13
 0.0000009467     1     9    12     1
 -0.1946238607     1     9    12     2
 -0.0000000347     1     9    12     3
 0.0151322502     1     9    12     4
 0.0000000052     1     9    12     5
 -0.0037274315     1     9    12    10
 -0.0075034214     1     9    12    13
 0.0000009834     1     9    13     6
 0.0000076556     1     9    13     7
 -0.0003695330     1     9    13    11
 -0.0007669861     1     9    13    12
 0.0039450310     1    10     2     1
 0.0000000096     1    10     2     2
 0.0000121297     1    10     2     3
 0.0001214681     1    10     2     5
 -0.0000002963     1    10     3     1
 0.0608978923     1    10     3     2
 0.0000000092     1    10     3     3
 0.0008162323     1    10     3     4
 0.0000000056     1    10     3     5
 0.0056659042     1    10     3    13
 0.0402536907     1    10     4     1
 0.0000000001     1    10     4     2
 0.0040484148     1    10     4     3
 -0.0000000018     1    10     4     4
 -0.0005568644     1    10     4     5
 -0.0000000134     1    10     4    13
 -0.0000014863     1    10     5     1
 0.3056356574     1    10     5     2
 0.0000000493     1    10     5     3
 -0.0195158063     1    10     5     4
 -0.0000000012     1    10     5     5
 0.0066299097     1    10     5    13
 -0.0000000031     1    10     6     6
 0.0055056975     1    10     6     8
 0.0007072507     1    10     6     9
 -0.0000000118     1    10     6    11
 0.0000000039     1    10     6    12
 -0.0000000031     1    10     7     7
 -0.0007072507     1    10     7     8
 0.0055056975     1    10     7     9
 -0.0000000039     1    10     7    11
 -0.0000000118     1    10     7    12
 0.0054080790     1    10     8     6
 -0.0006947108     1    10     8     7
 -0.0000000064     1    10     8     8
 0.0050033795     1    10     8    11
 -0.0024106221     1    10     8    12
 0.0006947108     1    10     9     6
 0.0054080790     1    10     9     7
 -0.0000000064     1    10     9     9
 0.0024106221     1    10     9    11
 0.0050033795     1    10     9    12
 -0.5935222201     1    10    10     1
 -0.0000000005     1    10    10     2
 0.0196150099     1    10    10     3
 -0.0000000544     1    10    10     4
 -0.0092035380     1    10    10     5
 0.0000000273     1    10    10    13
 -0.0000000083     1    10    11     6
 -0.0000000028     1    10    11     7
 0.0037274315     1    10    11     8
 0.0017958719     1    10    11     9
 -0.0000000063     1    10    11    11
 0.0000000028     1    10    12     6
 -0.0000000083     1    10    12     7
 -0.0017958719     1    10    12     8
 0.0037274315     1    10    12     9
 -0.0000000063     1    10    12    12
 0.1675727106     1    10    13     1
 0.0000000001     1    10    13     2
 -0.0132351597     1    10    13     3
 0.0000000345     1    10    13     4
 0.0051401132     1    10    13     5
 -0.0000000284     1    10    13    13
 0.0000609502     1    11     2     8
 0.0000293657     1    11     2     9
 0.0073458200     1    11     3     6
 0.0024442981     1    11     3     7
 -0.0000000153     1    11     3     8
 -0.0000000074     1    11     3     9
 -0.0000000152     1    11     4     6
 -0.0000000051     1    11     4     7
 0.0067468595     1    11     4     8
 0.0032506286     1    11     4     9
 0.0004201084     1    11     5     6
 0.0001397897     1    11     5     7
 0.0000000009     1    11     5     8
 0.0000000004     1    11     5     9
 -0.1931323258     1    11     6     1
 0.0000000006     1    11     6     2
 0.0215239896     1    11     6     3
 -0.0000000519     1    11     6     4
 -0.0020105715     1    11     6     5
 0.0000000118     1    11     6    10
 0.0000000170     1    11     6    13
 -0.0642641644     1    11     7     1
 0.0000000002     1    11     7     2
 0.0071620388     1    11     7     3
 -0.0000000173     1    11     7     4
 -0.0006690112     1    11     7     5
 0.0000000039     1    11     7    10
 0.0000000057     1    11     7    13
 0.0000009467     1    11     8     1
 -0.1945629105     1    11     8     2
 -0.0000000500     1    11     8     3
 0.0218791097     1    11     8     4
 0.0000000061     1    11     8     5
 -0.0050033795     1    11     8    10
 -0.0067364353     1    11     8    13
 0.0000004562     1    11     9     1
 -0.0937401696     1    11     9     2
 -0.0000000242     1    11     9     3
 0.0105413280     1    11     9     4
 0.0000000029     1    11     9     5
 -0.0024106221     1    11     9    10
 -0.0032456061     1    11     9    13
 0.0000000035     1    11    10     6
 0.0000000011     1    11    10     7
 -0.0012759480     1    11    10     8
 -0.0006147502     1    11    10     9
 -0.5444462892     1    11    11     1
 0.0000000014     1    11    11     2
 0.0196599943     1    11    11     3
 -0.0000000517     1    11    11     4
 -0.0053035598     1    11    11     5
 0.0000000063     1    11    11    10
 0.0000000308     1    11    11    13
 -0.0000000019     1    11    13     6
 -0.0000000006     1    11    13     7
 0.0007669861     1    11    13     8
 0.0003695330     1    11    13     9
 -0.0000293657     1    12     2     8
 0.0000609502     1    12     2     9
 -0.0024442981     1    12     3     6
 0.0073458200     1    12     3     7
 0.0000000074     1    12     3     8
 -0.0000000153     1    12     3     9
 0.0000000051     1    12     4     6
 -0.0000000152     1    12     4     7
 -0.0032506286     1    12     4     8
 0.0067468595     1    12     4     9
 -0.0001397897     1    12     5     6
 0.0004201084     1    12     5     7
 -0.0000000004     1    12     5     8
 0.0000000009     1    12     5     9
 0.0642641644     1    12     6     1
 -0.0000000002     1    12     6     2
 -0.0071620388     1    12     6     3
 0.0000000173     1    12     6     4
 0.0006690112     1    12     6     5
 -0.0000000039     1    12     6    10
 -0.0000000057     1    12     6    13
 -0.1931323258     1    12     7     1
 0.0000000006     1    12     7     2
 0.0215239896     1    12     7     3
 -0.0000000519     1    12     7     4
 -0.0020105715     1    12     7     5
 0.0000000118     1    12     7    10
 0.0000000170     1    12     7    13
 -0.0000004562     1    12     8     1
 0.0937401696     1    12     8     2
 0.0000000242     1    12     8     3
 -0.0105413280     1    12     8     4
 -0.0000000029     1    12     8     5
 0.0024106221     1    12     8    10
 0.0032456061     1    12     8    13
 0.0000009467     1    12     9     1
 -0.1945629105     1    12     9     2
 -0.0000000500     1    12     9     3
 0.0218791097     1    12     9     4
 0.0000000061     1    12     9     5
 -0.0050033795     1    12     9    10
 -0.0067364353     1    12     9    13
 -0.0000000011     1    12    10     6
 0.0000000035     1    12    10     7
 0.0006147502     1    12    10     8
 -0.0012759480     1    12    10     9
 -0.5444462892     1    12    12     1
 0.0000000014     1    12    12     2
 0.0196599943     1    12    12     3
 -0.0000000517     1    12    12     4
 -0.0053035598     1    12    12     5
 0.0000000063     1    12    12    10
 0.0000000308     1    12    12    13
 0.0000000006     1    12    13     6
 -0.0000000019     1    12    13     7
 -0.0003695330     1    12    13     8
 0.0007669861     1    12    13     9
 -0.0035234910     1    13     2     1
 -0.0000000086     1    13     2     2
 -0.0000110421     1    13     2     3
 -0.0001094139     1    13     2     5
 -0.0000003750     1    13     3     1
 0.0768816805     1    13     3     2
 -0.0000000079     1    13     3     3
 -0.0017212873     1    13     3     4
 -0.0000000174     1    13     3     5
 -0.0056659042     1    13     3    10
 0.1170245095     1    13     4     1
 -0.0000000006     1    13     4     2
 -0.0038935571     1    13     4     3
 0.0000000046     1    13     4     4
 0.0055520675     1    13     4     5
 0.0000000134     1    13     4    10
 0.0000008023     1    13     5     1
 -0.1648667143     1    13     5     2
 -0.0000000470     1    13     5     3
 0.0176823396     1    13     5     4
 -0.0000000125     1    13     5     5
 -0.0066299097     1    13     5    10
 -0.0000000193     1    13     6     6
 0.0045411364     1    13     6     8
 0.0005833451     1    13     6     9
 -0.0000000170     1    13     6    11
 0.0000000057     1    13     6    12
 -0.0000000193     1    13     7     7
 -0.0005833451     1    13     7     8
 0.0045411364     1    13     7     9
 -0.0000000057     1    13     7    11
 -0.0000000170     1    13     7    12
 0.0045487920     1    13     8     6
 -0.0005843285     1    13     8     7
 -0.0000000186     1    13     8     8
 0.0067364353     1    13     8    11
 -0.0032456061     1    13     8    12
 0.0005843285     1    13     9     6
 0.0045487920     1    13     9     7
 -0.0000000186     1    13     9     9
 0.0032456061     1    13     9    11