&FCI NORB= 19,NELEC= 14,MS2=0,
 ORBSYM=1,1,1,1,1,1,1,1,1,1,1,1,1,1,1,1,1,1,1
 ISYM=1,
&END
 0.2302776990     1     1     2     2
 -0.0003731485     1     1     2     4
 0.0000000001     1     1     2     5
 -0.0034585115     1     1     2    10
 0.0030475353     1     1     2    13
 0.0000000001     1     1     2    14
 -0.0000000002     1     1     2    17
 -0.0019487747     1     1     2    18
 0.5696448604     1     1     3     3
 -0.0000000195     1     1     3     4
 0.0053431925     1     1     3     5
 0.0000000030     1     1     3    10
 0.0000000048     1     1     3    13
 0.1615618662     1     1     3    14
 0.0244656956     1     1     3    17
 0.0000000065     1     1     3    18
 0.0168019418     1     1     3    19
 -0.0003731485     1     1     4     2
 -0.0000000195     1     1     4     3
 0.5770871089     1     1     4     4
 0.0000000051     1     1     4     5
 -0.0349900881     1     1     4    10
 -0.1186590502     1     1     4    13
 -0.0000000094     1     1     4    14
 -0.0000000023     1     1     4    17
 -0.1084259645     1     1     4    18
 -0.0000000001     1     1     4    19
 0.0000000001     1     1     5     2
 0.0053431925     1     1     5     3
 0.0000000051     1     1     5     4
 0.5445462191     1     1     5     5
 0.0000000178     1     1     5    10
 -0.0000000092     1     1     5    13
 0.0151028487     1     1     5    14
 -0.1951635244     1     1     5    17
 0.0000000036     1     1     5    18
 0.0274081778     1     1     5    19
 0.5357213451     1     1     6     6
 -0.0000000097     1     1     6     8
 -0.0000000156     1     1     6     9
 -0.0658928914     1     1     6    11
 0.1924747055     1     1     6    12
 0.0000000102     1     1     6    15
 0.0000000026     1     1     6    16
 0.5357213451     1     1     7     7
 0.0000000156     1     1     7     8
 -0.0000000097     1     1     7     9
 0.1924747055     1     1     7    11
 0.0658928914     1     1     7    12
 -0.0000000026     1     1     7    15
 0.0000000102     1     1     7    16
 -0.0000000097     1     1     8     6
 0.0000000156     1     1     8     7
 0.5519704743     1     1     8     8
 0.0000000120     1     1     8    11
 -0.0000000028     1     1     8    12
 -0.1505667445     1     1     8    15
 0.1439181148     1     1     8    16
 -0.0000000156     1     1     9     6
 -0.0000000097     1     1     9     7
 0.5519704743     1     1     9     9
 -0.0000000028     1     1     9    11
 -0.0000000120     1     1     9    12
 -0.1439181148     1     1     9    15
 -0.1505667445     1     1     9    16
 -0.0034585115     1     1    10     2
 0.0000000030     1     1    10     3
 -0.0349900881     1     1    10     4
 0.0000000178     1     1    10     5
 0.5843692675     1     1    10    10
 -0.1631227464     1     1    10    13
 0.0000000067     1     1    10    14
 -0.0000000125     1     1    10    17
 0.1205089716     1     1    10    18
 -0.0000000016     1     1    10    19
 -0.0658928914     1     1    11     6
 0.1924747055     1     1    11     7
 0.0000000120     1     1    11     8
 -0.0000000028     1     1    11     9
 0.5376455618     1     1    11    11
 -0.0000000097     1     1    11    15
 0.0000000149     1     1    11    16
 0.1924747055     1     1    12     6
 0.0658928914     1     1    12     7
 -0.0000000028     1     1    12     8
 -0.0000000120     1     1    12     9
 0.5376455618     1     1    12    12
 0.0000000149     1     1    12    15
 0.0000000097     1     1    12    16
 0.0030475353     1     1    13     2
 0.0000000048     1     1    13     3
 -0.1186590502     1     1    13     4
 -0.0000000092     1     1    13     5
 -0.1631227464     1     1    13    10
 0.4834757768     1     1    13    13
 0.0000000058     1     1    13    14
 0.0000000165     1     1    13    17
 -0.0192128918     1     1    13    18
 -0.0000000012     1     1    13    19
 0.0000000001     1     1    14     2
 0.1615618662     1     1    14     3
 -0.0000000094     1     1    14     4
 0.0151028487     1     1    14     5
 0.0000000067     1     1    14    10
 0.0000000058     1     1    14    13
 0.4979013478     1     1    14    14
 -0.0573837777     1     1    14    17
 0.0000000114     1     1    14    18
 -0.0012570330     1     1    14    19
 0.0000000102     1     1    15     6
 -0.0000000026     1     1    15     7
 -0.1505667445     1     1    15     8
 -0.1439181148     1     1    15     9
 -0.0000000097     1     1    15    11
 0.0000000149     1     1    15    12
 0.5199757523     1     1    15    15
 0.0000000026     1     1    16     6
 0.0000000102     1     1    16     7
 0.1439181148     1     1    16     8
 -0.1505667445     1     1    16     9
 0.0000000149     1     1    16    11
 0.0000000097     1     1    16    12
 0.5199757523     1     1    16    16
 -0.0000000002     1     1    17     2
 0.0244656956     1     1    17     3
 -0.0000000023     1     1    17     4
 -0.1951635244     1     1    17     5
 -0.0000000125     1     1    17    10
 0.0000000165     1     1    17    13
 -0.0573837777     1     1    17    14
 0.5426869266     1     1    17    17
 -0.0000000059     1     1    17    18
 0.0028437302     1     1    17    19
 -0.0019487747     1     1    18     2
 0.0000000065     1     1    18     3
 -0.1084259645     1     1    18     4
 0.0000000036     1     1    18     5
 0.1205089716     1     1    18    10
 -0.0192128918     1     1    18    13
 0.0000000114     1     1    18    14
 -0.0000000059     1     1    18    17
 0.4876873758     1     1    18    18
 0.0000000067     1     1    18    19
 0.0168019418     1     1    19     3
 -0.0000000001     1     1    19     4
 0.0274081778     1     1    19     5
 -0.0000000016     1     1    19    10
 -0.0000000012     1     1    19    13
 -0.0012570330     1     1    19    14
 0.0028437302     1     1    19    17
 0.0000000067     1     1    19    18
 0.4984339432     1     1    19    19
 -0.2302776990     1     2     2     1
 -0.0001889190     1     2     2     3
 -0.0033550277     1     2     2     5
 -0.0000000001     1     2     2    10
 0.0000000001     1     2     2    13
 -0.0009225004     1     2     2    14
 0.0038677587     1     2     2    17
 -0.0004486502     1     2     2    19
 0.3406084388     1     2     3     4
 -0.0528697072     1     2     3    10
 -0.0839969902     1     2     3    13
 -0.1131840511     1     2     3    18
 0.0003731485     1     2     4     1
 0.3406096329     1     2     4     3
 -0.0880241212     1     2     4     5
 0.1643857185     1     2     4    14
 0.0410405451     1     2     4    17
 0.0025522856     1     2     4    19
 -0.0000000001     1     2     5     1
 -0.0880385078     1     2     5     4
 -0.3108691234     1     2     5    10
 0.1598058460     1     2     5    13
 -0.0625527101     1     2     5    18
 0.1702597791     1     2     6     8
 0.2713814676     1     2     6     9
 -0.1780983111     1     2     6    15
 -0.0450325503     1     2     6    16
 -0.2713814676     1     2     7     8
 0.1702597791     1     2     7     9
 0.0450325503     1     2     7    15
 -0.1780983111     1     2     7    16
 0.1702322444     1     2     8     6
 -0.2713375792     1     2     8     7
 -0.2090608568     1     2     8    11
 0.0490539891     1     2     8    12
 0.2713375792     1     2     9     6
 0.1702322444     1     2     9     7
 0.0490539891     1     2     9    11
 0.2090608568     1     2     9    12
 0.0034585115     1     2    10     1
 -0.0528579028     1     2    10     3
 -0.3107654903     1     2    10     5
 -0.1153971999     1     2    10    14
 0.2166024331     1     2    10    17
 0.0271109313     1     2    10    19
 -0.2091196442     1     2    11     8
 0.0490677830     1     2    11     9
 0.1690251397     1     2    11    15
 -0.2593991564     1     2    11    16
 0.0490677830     1     2    12     8
 0.2091196442     1     2    12     9
 -0.2593991564     1     2    12    15
 -0.1690251397     1     2    12    16
 -0.0030475353     1     2    13     1
 -0.0840076023     1     2    13     3
 0.1597150880     1     2    13     5
 -0.1023812601     1     2    13    14
 -0.2872185263     1     2    13    17
 0.0211960070     1     2    13    19
 -0.0000000001     1     2    14     1
 0.1643835803     1     2    14     4
 -0.1154318545     1     2    14    10
 -0.1023514610     1     2    14    13
 -0.1991488110     1     2    14    18
 -0.1780407621     1     2    15     6
 0.0450179989     1     2    15     7
 0.1689868386     1     2    15    11
 -0.2593403764     1     2    15    12
 -0.0450179989     1     2    16     6
 -0.1780407621     1     2    16     7
 -0.2593403764     1     2    16    11
 -0.1689868386     1     2    16    12
 0.0000000002     1     2    17     1
 0.0410516295     1     2    17     4
 0.2167274363     1     2    17    10
 -0.2873264440     1     2    17    13
 0.1029021088     1     2    17    18
 0.0019487747     1     2    18     1
 -0.1131757466     1     2    18     3
 -0.0624920760     1     2    18     5
 -0.1991282817     1     2    18    14
 0.1028306586     1     2    18    17
 -0.1159035820     1     2    18    19
 0.0025505017     1     2    19     4
 0.0270923334     1     2    19    10
 0.0212124692     1     2    19    13
 -0.1159142225     1     2    19    18
 0.0001889190     1     3     2     2
 -0.0000009157     1     3     2     4
 -0.0000117875     1     3     2    10
 0.0000099867     1     3     2    13
 -0.0000070752     1     3     2    18
 -0.5696448604     1     3     3     1
 -0.0000000001     1     3     3     4
 -0.0026662668     1     3     3     5
 -0.0000000001     1     3     3    10
 0.0000000001     1     3     3    13
 -0.0014612912     1     3     3    14
 0.0035377985     1     3     3    17
 -0.0000000001     1     3     3    18
 -0.0003691019     1     3     3    19
 0.0000000195     1     3     4     1
 -0.3406096329     1     3     4     2
 -0.0004559107     1     3     4     4
 -0.0000000001     1     3     4     5
 -0.0035888050     1     3     4    10
 0.0034737944     1     3     4    13
 0.0000000001     1     3     4    17
 -0.0014030828     1     3     4    18
 -0.0053431925     1     3     5     1
 -0.0000000001     1     3     5     4
 -0.0179938647     1     3     5     5
 -0.0000000005     1     3     5    10
 0.0000000006     1     3     5    13
 -0.0051976766     1     3     5    14
 0.0230801336     1     3     5    17
 -0.0000000004     1     3     5    18
 -0.0007985794     1     3     5    19
 -0.0179294492     1     3     6     6
 0.0000000003     1     3     6     8
 0.0000000004     1     3     6     9
 0.0073143028     1     3     6    11
 -0.0213652527     1     3     6    12
 -0.0000000006     1     3     6    15
 -0.0000000001     1     3     6    16
 -0.0179294492     1     3     7     7
 -0.0000000004     1     3     7     8
 0.0000000003     1     3     7     9
 -0.0213652527     1     3     7    11
 -0.0073143028     1     3     7    12
 0.0000000001     1     3     7    15
 -0.0000000006     1     3     7    16
 0.0000000003     1     3     8     6
 -0.0000000004     1     3     8     7
 -0.0183652941     1     3     8     8
 -0.0000000006     1     3     8    11
 0.0000000001     1     3     8    12
 0.0158112339     1     3     8    15
 -0.0151130517     1     3     8    16
 0.0000000004     1     3     9     6
 0.0000000003     1     3     9     7
 -0.0183652941     1     3     9     9
 0.0000000001     1     3     9    11
 0.0000000006     1     3     9    12
 0.0151130517     1     3     9    15
 0.0158112339     1     3     9    16
 -0.0000000030     1     3    10     1
 0.0528579028     1     3    10     2
 -0.0027914129     1     3    10     4
 -0.0000000006     1     3    10     5
 -0.0194461023     1     3    10    10
 0.0183026348     1     3    10    13
 -0.0000000002     1     3    10    14
 0.0000000007     1     3    10    17
 -0.0109187720     1     3    10    18
 0.0049022657     1     3    11     6
 -0.0143196348     1     3    11     7
 -0.0000000005     1     3    11     8
 0.0000000001     1     3    11     9
 -0.0196105413     1     3    11    11
 0.0000000003     1     3    11    15
 -0.0000000005     1     3    11    16
 -0.0143196348     1     3    12     6
 -0.0049022657     1     3    12     7
 0.0000000001     1     3    12     8
 0.0000000005     1     3    12     9
 -0.0196105413     1     3    12    12
 -0.0000000005     1     3    12    15
 -0.0000000003     1     3    12    16
 -0.0000000048     1     3    13     1
 0.0840076023     1     3    13     2
 0.0018045479     1     3    13     4
 0.0000000004     1     3    13     5
 0.0129091968     1     3    13    10
 -0.0129957705     1     3    13    13
 0.0000000001     1     3    13    14
 -0.0000000004     1     3    13    17
 0.0072336712     1     3    13    18
 -0.1615618662     1     3    14     1
 -0.0038093016     1     3    14     5
 -0.0000000001     1     3    14    10
 0.0000000001     1     3    14    13
 -0.0016273993     1     3    14    14
 0.0048174243     1     3    14    17
 -0.0000000001     1     3    14    18
 -0.0000438075     1     3    14    19
 -0.0000000004     1     3    15     6
 0.0000000001     1     3    15     7
 0.0109900081     1     3    15     8
 0.0105047184     1     3    15     9
 0.0000000003     1     3    15    11
 -0.0000000005     1     3    15    12
 -0.0187787661     1     3    15    15
 -0.0000000001     1     3    16     6
 -0.0000000004     1     3    16     7
 -0.0105047184     1     3    16     8
 0.0109900081     1     3    16     9
 -0.0000000005     1     3    16    11
 -0.0000000003     1     3    16    12
 -0.0187787661     1     3    16    16
 -0.0244656956     1     3    17     1
 0.0000000001     1     3    17     4
 0.0146859775     1     3    17     5
 0.0000000005     1     3    17    10
 -0.0000000004     1     3    17    13
 0.0039704942     1     3    17    14
 -0.0195494054     1     3    17    17
 0.0000000003     1     3    17    18
 0.0005618209     1     3    17    19
 -0.0000000065     1     3    18     1
 0.1131757466     1     3    18     2
 -0.0009542882     1     3    18     4
 -0.0000000002     1     3    18     5
 -0.0072453271     1     3    18    10
 0.0069886610     1     3    18    13
 -0.0000000001     1     3    18    14
 0.0000000003     1     3    18    17
 -0.0048488709     1     3    18    18
 -0.0168019418     1     3    19     1
 -0.0007417321     1     3    19     5
 -0.0001474823     1     3    19    14
 0.0011796876     1     3    19    17
 -0.0026948893     1     3    19    19
 0.0003731485     1     4     2     1
 0.0000009157     1     4     2     3
 0.0000130027     1     4     2     5
 0.0000025004     1     4     2    14
 -0.0000122366     1     4     2    17
 0.0000021949     1     4     2    19
 0.0000000195     1     4     3     1
 -0.3406084388     1     4     3     2
 0.0000000001     1     4     3     3
 -0.0008492556     1     4     3    10
 0.0016907101     1     4     3    13
 0.0000000001     1     4     3    17
 -0.0004577745     1     4     3    18
 -0.5770871089     1     4     4     1
 0.0004559107     1     4     4     3
 0.0006003173     1     4     4     5
 -0.0001232018     1     4     4    14
 -0.0016495602     1     4     4    17
 0.0000855908     1     4     4    19
 -0.0000000051     1     4     5     1
 0.0880385078     1     4     5     2
 0.0000000001     1     4     5     3
 0.0000000005     1     4     5     5
 0.0192124195     1     4     5    10
 -0.0171494884     1     4     5    13
 0.0000000001     1     4     5    14
 -0.0000000007     1     4     5    17
 0.0120633267     1     4     5    18
 0.0000000006     1     4     6     6
 -0.0097477824     1     4     6     8
 -0.0155372426     1     4     6     9
 -0.0000000003     1     4     6    11
 0.0000000006     1     4     6    12
 0.0214896163     1     4     6    15
 0.0054336969     1     4     6    16
 0.0000000006     1     4     7     7
 0.0155372426     1     4     7     8
 -0.0097477824     1     4     7     9
 0.0000000006     1     4     7    11
 0.0000000003     1     4     7    12
 -0.0054336969     1     4     7    15
 0.0214896163     1     4     7    16
 -0.0097244369     1     4     8     6
 0.0155000317     1     4     8     7
 0.0000000006     1     4     8     8
 0.0229035400     1     4     8    11
 -0.0053740811     1     4     8    12
 -0.0000000004     1     4     8    15
 0.0000000004     1     4     8    16
 -0.0155000317     1     4     9     6
 -0.0097244369     1     4     9     7
 0.0000000006     1     4     9     9
 -0.0053740811     1     4     9    11
 -0.0229035400     1     4     9    12
 -0.0000000004     1     4     9    15
 -0.0000000004     1     4     9    16
 0.0349900881     1     4    10     1
 0.0027914129     1     4    10     3
 0.0185976892     1     4    10     5
 0.0000000006     1     4    10    10
 -0.0000000005     1     4    10    13
 0.0072921709     1     4    10    14
 -0.0243318102     1     4    10    17
 0.0000000004     1     4    10    18
 0.0019065827     1     4    10    19
 -0.0000000002     1     4    11     6
 0.0000000004     1     4    11     7
 0.0161471786     1     4    11     8
 -0.0037887701     1     4    11     9
 0.0000000007     1     4    11    11
 -0.0111102303     1     4    11    15
 0.0170506256     1     4    11    16
 0.0000000004     1     4    12     6
 0.0000000002     1     4    12     7
 -0.0037887701     1     4    12     8
 -0.0161471786     1     4    12     9
 0.0000000007     1     4    12    12
 0.0170506256     1     4    12    15
 0.0111102303     1     4    12    16
 0.1186590502     1     4    13     1
 -0.0018045479     1     4    13     3
 -0.0118489828     1     4    13     5
 -0.0000000004     1     4    13    10
 0.0000000004     1     4    13    13
 -0.0047971346     1     4    13    14
 0.0155447145     1     4    13    17
 -0.0000000002     1     4    13    18
 -0.0012072681     1     4    13    19
 0.0000000094     1     4    14     1
 -0.1643835803     1     4    14     2
 0.0000000001     1     4    14     5
 0.0046557392     1     4    14    10
 -0.0038758837     1     4    14    13
 -0.0000000002     1     4    14    17
 0.0033961145     1     4    14    18
 0.0145812089     1     4    15     6
 -0.0036868908     1     4    15     7
 -0.0000000003     1     4    15     8
 -0.0000000003     1     4    15     9
 -0.0106363133     1     4    15    11
 0.0163233155     1     4    15    12
 0.0000000005     1     4    15    15
 0.0036868908     1     4    16     6
 0.0145812089     1     4    16     7
 0.0000000003     1     4    16     8
 -0.0000000003     1     4    16     9
 0.0163233155     1     4    16    11
 0.0106363133     1     4    16    12
 0.0000000005     1     4    16    16
 0.0000000023     1     4    17     1
 -0.0410516295     1     4    17     2
 -0.0000000001     1     4    17     3
 -0.0000000005     1     4    17     5
 -0.0175053895     1     4    17    10
 0.0153690965     1     4    17    13
 -0.0000000002     1     4    17    14
 0.0000000005     1     4    17    17
 -0.0113916867     1     4    17    18
 0.1084259645     1     4    18     1
 0.0009542882     1     4    18     3
 0.0067589333     1     4    18     5
 0.0000000003     1     4    18    10
 -0.0000000002     1     4    18    13
 0.0032891436     1     4    18    14
 -0.0087778263     1     4    18    17
 0.0000000002     1     4    18    18
 0.0014416255     1     4    18    19
 0.0000000001     1     4    19     1
 -0.0025505017     1     4    19     2
 0.0001070588     1     4    19    10
 0.0002296294     1     4    19    13
 0.0005762436     1     4    19    18
 0.0000000001     1     4    19    19
 -0.0000000001     1     5     2     1
 0.0033550277     1     5     2     2
 -0.0000130027     1     5     2     4
 -0.0001050016     1     5     2    10
 0.0000920464     1     5     2    13
 -0.0000589059     1     5     2    18
 -0.0053431925     1     5     3     1
 0.0026662668     1     5     3     3
 0.0000000002     1     5     3    13
 -0.0014265162     1     5     3    14
 0.0085225939     1     5     3    17
 -0.0000000002     1     5     3    18
 -0.0000403828     1     5     3    19
 -0.0000000051     1     5     4     1
 0.0880241212     1     5     4     2
 0.0000000001     1     5     4     3
 -0.0006003173     1     5     4     4
 0.0006997292     1     5     4    10
 -0.0053899448     1     5     4    13
 0.0000000001     1     5     4    14
 -0.0000000002     1     5     4    17
 0.0053636206     1     5     4    18
 -0.5445462191     1     5     5     1
 0.0179938647     1     5     5     3
 -0.0000000005     1     5     5     4
 0.0000000002     1     5     5    13
 0.0088484169     1     5     5    14
 0.0022150865     1     5     5    17
 0.0000000003     1     5     5    18
 0.0084534925     1     5     5    19
 0.0035789951     1     5     6     6
 -0.0006115741     1     5     6    11
 0.0017864223     1     5     6    12
 0.0035789951     1     5     7     7
 0.0017864223     1     5     7    11
 0.0006115741     1     5     7    12
 0.0035201816     1     5     8     8
 0.0000000001     1     5     8    11
 -0.0026437064     1     5     8    15
 0.0025269673     1     5     8    16
 0.0035201816     1     5     9     9
 -0.0000000001     1     5     9    12
 -0.0025269673     1     5     9    15
 -0.0026437064     1     5     9    16
 -0.0000000178     1     5    10     1
 0.3107654903     1     5    10     2
 0.0000000006     1     5    10     3
 -0.0185976892     1     5    10     4
 0.0080498011     1     5    10    10
 0.0024099950     1     5    10    13
 0.0000000003     1     5    10    14
 0.0131313483     1     5    10    18
 0.0000000002     1     5    10    19
 -0.0007262683     1     5    11     6
 0.0021214471     1     5    11     7
 0.0000000001     1     5    11     8
 0.0046973234     1     5    11    11
 0.0000000001     1     5    11    16
 0.0021214471     1     5    12     6
 0.0007262683     1     5    12     7
 -0.0000000001     1     5    12     9
 0.0046973234     1     5    12    12
 0.0000000001     1     5    12    15
 0.0000000092     1     5    13     1
 -0.1597150880     1     5    13     2
 -0.0000000004     1     5    13     3
 0.0118489828     1     5    13     4
 -0.0043460438     1     5    13    10
 -0.0059134931     1     5    13    13
 -0.0000000004     1     5    13    14
 -0.0000000001     1     5    13    17
 -0.0096744062     1     5    13    18
 -0.0000000001     1     5    13    19
 -0.0151028487     1     5    14     1
 0.0038093016     1     5    14     3
 -0.0000000001     1     5    14     4
 0.0062594915     1     5    14    14
 -0.0037063156     1     5    14    17
 0.0000000001     1     5    14    18
 0.0015616878     1     5    14    19
 -0.0015881396     1     5    15     8
 -0.0015180116     1     5    15     9
 0.0030655969     1     5    15    15
 0.0015180116     1     5    16     8
 -0.0015881396     1     5    16     9
 0.0030655969     1     5    16    16
 0.1951635244     1     5    17     1
 -0.0146859775     1     5    17     3
 0.0000000005     1     5    17     4
 -0.0000000001     1     5    17    10
 -0.0000000002     1     5    17    13
 -0.0163351062     1     5    17    14
 0.0013610793     1     5    17    17
 -0.0000000003     1     5    17    18
 -0.0047981109     1     5    17    19
 -0.0000000036     1     5    18     1
 0.0624920760     1     5    18     2
 0.0000000002     1     5    18     3
 -0.0067589333     1     5    18     4
 0.0025383721     1     5    18    10
 0.0045485266     1     5    18    13
 0.0000000002     1     5    18    14
 0.0000000001     1     5    18    17
 0.0070720618     1     5    18    18
 0.0000000001     1     5    18    19
 -0.0274081778     1     5    19     1
 0.0007417321     1     5    19     3
 0.0000000002     1     5    19    13
 -0.0007872383     1     5    19    14
 0.0071538447     1     5    19    17
 -0.0000000001     1     5    19    18
 0.0013806670     1     5    19    19
 0.0000281270     1     6     2     8
 0.0000448323     1     6     2     9
 -0.0000580163     1     6     2    15
 -0.0000146695     1     6     2    16
 0.0024741585     1     6     3    11
 -0.0072270759     1     6     3    12
 -0.0000000003     1     6     3    15
 -0.0000534224     1     6     4     8
 -0.0000851513     1     6     4     9
 -0.0000000001     1     6     4    11
 0.0000000001     1     6     4    12
 0.0070375369     1     6     4    15
 0.0017794567     1     6     4    16
 0.0001098349     1     6     5    11
 -0.0003208304     1     6     5    12
 -0.5357213451     1     6     6     1
 0.0179294492     1     6     6     3
 -0.0000000006     1     6     6     4
 -0.0035789951     1     6     6     5
 0.0000000001     1     6     6    10
 0.0000000002     1     6     6    13
 0.0097715997     1     6     6    14
 0.0037018357     1     6     6    17
 0.0000000002     1     6     6    18
 -0.0035700772     1     6     6    19
 0.0000000097     1     6     8     1
 -0.1702322444     1     6     8     2
 -0.0000000003     1     6     8     3
 0.0097244369     1     6     8     4
 -0.0025965251     1     6     8    10
 -0.0026466536     1     6     8    13
 -0.0000000002     1     6     8    14
 -0.0037074595     1     6     8    18
 0.0000000001     1     6     8    19
 0.0000000156     1     6     9     1
 -0.2713375792     1     6     9     2
 -0.0000000004     1     6     9     3
 0.0155000317     1     6     9     4
 -0.0041386685     1     6     9    10
 -0.0042185697     1     6     9    13
 -0.0000000003     1     6     9    14
 -0.0059094158     1     6     9    18
 0.0000000001     1     6     9    19
 -0.0000024778     1     6    10     8
 -0.0000039494     1     6    10     9
 -0.0000000001     1     6    10    12
 -0.0003783778     1     6    10    15
 -0.0000956737     1     6    10    16
 0.0658928914     1     6    11     1
 -0.0049022657     1     6    11     3
 0.0000000002     1     6    11     4
 0.0007262683     1     6    11     5
 -0.0000000001     1     6    11    13
 -0.0051979533     1     6    11    14
 -0.0006420116     1     6    11    17
 -0.0000000001     1     6    11    18
 0.0003649948     1     6    11    19
 -0.1924747055     1     6    12     1
 0.0143196348     1     6    12     3
 -0.0000000004     1     6    12     4
 -0.0021214471     1     6    12     5
 0.0000000003     1     6    12    13
 0.0151833454     1     6    12    14
 0.0018753312     1     6    12    17
 0.0000000003     1     6    12    18
 -0.0010661585     1     6    12    19
 0.0000003482     1     6    13     8
 0.0000005550     1     6    13     9
 -0.0000000001     1     6    13    11
 0.0000000001     1     6    13    12
 0.0009359591     1     6    13    15
 0.0002366593     1     6    13    16
 -0.0007695455     1     6    14    11
 0.0022478606     1     6    14    12
 0.0000000001     1     6    14    15
 -0.0000000102     1     6    15     1
 0.1780407621     1     6    15     2
 0.0000000004     1     6    15     3
 -0.0145812089     1     6    15     4
 0.0029931966     1     6    15    10
 0.0091159507     1     6    15    13
 0.0000000004     1     6    15    14
 0.0108034114     1     6    15    18
 -0.0000000001     1     6    15    19
 -0.0000000026     1     6    16     1
 0.0450179989     1     6    16     2
 0.0000000001     1     6    16     3
 -0.0036868908     1     6    16     4
 0.0007568363     1     6    16    10
 0.0023049882     1     6    16    13
 0.0000000001     1     6    16    14
 0.0027316663     1     6    16    18
 -0.0001565350     1     6    17    11
 0.0004572425     1     6    17    12
 0.0001676354     1     6    18     8
 0.0002671984     1     6    18     9
 -0.0000000001     1     6    18    11
 0.0000000001     1     6    18    12
 0.0033987892     1     6    18    15
 0.0008593914     1     6    18    16
 -0.0011162954     1     6    19    11
 0.0032607255     1     6    19    12
 0.0000000001     1     6    19    15
 -0.0000448323     1     7     2     8
 0.0000281270     1     7     2     9
 0.0000146695     1     7     2    15
 -0.0000580163     1     7     2    16
 -0.0072270759     1     7     3    11
 -0.0024741585     1     7     3    12
 -0.0000000003     1     7     3    16
 0.0000851513     1     7     4     8
 -0.0000534224     1     7     4     9
 0.0000000001     1     7     4    11
 0.0000000001     1     7     4    12
 -0.0017794567     1     7     4    15
 0.0070375369     1     7     4    16
 -0.0003208304     1     7     5    11
 -0.0001098349     1     7     5    12
 -0.5357213451     1     7     7     1
 0.0179294492     1     7     7     3
 -0.0000000006     1     7     7     4
 -0.0035789951     1     7     7     5
 0.0000000001     1     7     7    10
 0.0000000002     1     7     7    13
 0.0097715997     1     7     7    14
 0.0037018357     1     7     7    17
 0.0000000002     1     7     7    18
 -0.0035700772     1     7     7    19
 -0.0000000156     1     7     8     1
 0.2713375792     1     7     8     2
 0.0000000004     1     7     8     3
 -0.0155000317     1     7     8     4
 0.0041386685     1     7     8    10
 0.0042185697     1     7     8    13
 0.0000000003     1     7     8    14
 0.0059094158     1     7     8    18
 -0.0000000001     1     7     8    19
 0.0000000097     1     7     9     1
 -0.1702322444     1     7     9     2
 -0.0000000003     1     7     9     3
 0.0097244369     1     7     9     4
 -0.0025965251     1     7     9    10
 -0.0026466536     1     7     9    13
 -0.0000000002     1     7     9    14
 -0.0037074595     1     7     9    18
 0.0000000001     1     7     9    19
 0.0000039494     1     7    10     8
 -0.0000024778     1     7    10     9
 -0.0000000001     1     7    10    11
 0.0000956737     1     7    10    15
 -0.0003783778     1     7    10    16
 -0.1924747055     1     7    11     1
 0.0143196348     1     7    11     3
 -0.0000000004     1     7    11     4
 -0.0021214471     1     7    11     5
 0.0000000003     1     7    11    13
 0.0151833454     1     7    11    14