&FCI NORB= 13,NELEC= 14,MS2=0,
 ORBSYM=1,1,1,1,1,1,1,1,1,1,1,1,1
 ISYM=1,
&END
 0.1667455928     1     1     2     2
 -0.0000282600     1     1     2     4
 0.0000000001     1     1     2     5
 -0.0018376763     1     1     2    10
 0.0000000001     1     1     2    11
 0.5380279175     1     1     3     3
 -0.0000000198     1     1     3     4
 0.0004461755     1     1     3     5
 0.0000000008     1     1     3    10
 0.0647883134     1     1     3    11
 -0.0000282600     1     1     4     2
 -0.0000000198     1     1     4     3
 0.5413339050     1     1     4     4
 0.0000000021     1     1     4     5
 -0.0196967787     1     1     4    10
 -0.0000000031     1     1     4    11
 0.0000000001     1     1     5     2
 0.0004461755     1     1     5     3
 0.0000000021     1     1     5     4
 0.5057609848     1     1     5     5
 0.0000000172     1     1     5    10
 0.1681055941     1     1     5    11
 0.5113021732     1     1     6     6
 0.0000000166     1     1     6     8
 0.0000000061     1     1     6     9
 -0.0000569205     1     1     6    12
 -0.1921162539     1     1     6    13
 0.5113021732     1     1     7     7
 0.0000000057     1     1     7     8
 -0.0000000166     1     1     7     9
 -0.1921162539     1     1     7    12
 0.0000569205     1     1     7    13
 0.0000000166     1     1     8     6
 0.0000000057     1     1     8     7
 0.5165923055     1     1     8     8
 -0.0000000028     1     1     8    12
 -0.0000000102     1     1     8    13
 0.0000000061     1     1     9     6
 -0.0000000166     1     1     9     7
 0.5165923055     1     1     9     9
 0.0000000102     1     1     9    12
 -0.0000000045     1     1     9    13
 -0.0018376763     1     1    10     2
 0.0000000008     1     1    10     3
 -0.0196967787     1     1    10     4
 0.0000000172     1     1    10     5
 0.5303527200     1     1    10    10
 0.0000000117     1     1    10    11
 0.0000000001     1     1    11     2
 0.0647883134     1     1    11     3
 -0.0000000031     1     1    11     4
 0.1681055941     1     1    11     5
 0.0000000117     1     1    11    10
 0.5220653762     1     1    11    11
 -0.0000569205     1     1    12     6
 -0.1921162539     1     1    12     7
 -0.0000000028     1     1    12     8
 0.0000000102     1     1    12     9
 0.5022667461     1     1    12    12
 -0.1921162539     1     1    13     6
 0.0000569205     1     1    13     7
 -0.0000000102     1     1    13     8
 -0.0000000045     1     1    13     9
 0.5022667461     1     1    13    13
 -0.1667455928     1     2     2     1
 -0.0000683469     1     2     2     3
 -0.0017260106     1     2     2     5
 -0.0016931961     1     2     2    11
 -0.0000000001     1     2     3     3
 0.3731871113     1     2     3     4
 -0.0151559983     1     2     3    10
 0.0000282600     1     2     4     1
 0.3732064196     1     2     4     3
 0.0000000001     1     2     4     4
 -0.0390554440     1     2     4     5
 0.0579165050     1     2     4    11
 -0.0000000001     1     2     5     1
 -0.0390546116     1     2     5     4
 -0.0000000002     1     2     5     5
 -0.3243777571     1     2     5    10
 -0.0000000001     1     2     5    11
 0.0000000013     1     2     6     6
 -0.0000000031     1     2     6     7
 -0.3129197638     1     2     6     8
 -0.1117825064     1     2     6     9
 0.0000000009     1     2     6    12
 -0.0000000004     1     2     6    13
 -0.0000000031     1     2     7     6
 -0.0000000011     1     2     7     7
 -0.1117825064     1     2     7     8
 0.3129197638     1     2     7     9
 0.0000000004     1     2     7    12
 0.0000000009     1     2     7    13
 -0.3129007364     1     2     8     6
 -0.1117757094     1     2     8     7
 0.0000000011     1     2     8     8
 -0.0000000035     1     2     8     9
 0.0686840868     1     2     8    12
 0.1920919904     1     2     8    13
 -0.1117757093     1     2     9     6
 0.3129007363     1     2     9     7
 -0.0000000035     1     2     9     8
 -0.0000000013     1     2     9     9
 -0.1920919904     1     2     9    12
 0.0686840868     1     2     9    13
 0.0018376763     1     2    10     1
 -0.0151586762     1     2    10     3
 -0.3243413584     1     2    10     5
 0.0000000002     1     2    10    10
 -0.2209646381     1     2    10    11
 -0.0000000001     1     2    11     1
 0.0579341920     1     2    11     4
 -0.0000000001     1     2    11     5
 -0.2210051153     1     2    11    10
 0.0000000009     1     2    12     6
 0.0000000004     1     2    12     7
 0.0686915534     1     2    12     8
 -0.1921128723     1     2    12     9
 -0.0000000003     1     2    12    12
 -0.0000000007     1     2    12    13
 -0.0000000004     1     2    13     6
 0.0000000009     1     2    13     7
 0.1921128723     1     2    13     8
 0.0686915534     1     2    13     9
 -0.0000000007     1     2    13    12
 0.0000000003     1     2    13    13
 0.0000683469     1     3     2     2
 -0.0000113532     1     3     2     4
 0.0000028605     1     3     2    10
 -0.5380279175     1     3     3     1
 0.0000000001     1     3     3     2
 -0.0009837642     1     3     3     5
 -0.0014094542     1     3     3    11
 0.0000000198     1     3     4     1
 -0.3732064196     1     3     4     2
 -0.0001982744     1     3     4     4
 -0.0013263781     1     3     4    10
 -0.0004461755     1     3     5     1
 -0.0175719382     1     3     5     5
 -0.0000000005     1     3     5    10
 -0.0206132021     1     3     5    11
 -0.0184011802     1     3     6     6
 -0.0000000005     1     3     6     8
 -0.0000000001     1     3     6     9
 0.0000066248     1     3     6    12
 0.0223600388     1     3     6    13
 -0.0184011802     1     3     7     7
 -0.0000000001     1     3     7     8
 0.0000000005     1     3     7     9
 0.0223600388     1     3     7    12
 -0.0000066248     1     3     7    13
 -0.0000000004     1     3     8     6
 -0.0000000001     1     3     8     7
 -0.0178894289     1     3     8     8
 0.0000000001     1     3     8    12
 0.0000000006     1     3     8    13
 -0.0000000002     1     3     9     6
 0.0000000004     1     3     9     7
 -0.0178894289     1     3     9     9
 -0.0000000006     1     3     9    12
 0.0000000003     1     3     9    13
 -0.0000000008     1     3    10     1
 0.0151586762     1     3    10     2
 -0.0006689321     1     3    10     4
 -0.0000000004     1     3    10     5
 -0.0185037601     1     3    10    10
 -0.0000000006     1     3    10    11
 -0.0647883134     1     3    11     1
 -0.0137408135     1     3    11     5
 -0.0000000004     1     3    11    10
 -0.0173450742     1     3    11    11
 0.0000043619     1     3    12     6
 0.0147219871     1     3    12     7
 -0.0000000004     1     3    12     9
 -0.0194113106     1     3    12    12
 0.0147219871     1     3    13     6
 -0.0000043619     1     3    13     7
 0.0000000004     1     3    13     8
 0.0000000002     1     3    13     9
 -0.0194113106     1     3    13    13
 0.0000282600     1     4     2     1
 0.0000113532     1     4     2     3
 0.0000010203     1     4     2     5
 -0.0000099313     1     4     2    11
 0.0000000198     1     4     3     1
 -0.3731871113     1     4     3     2
 -0.0006231643     1     4     3    10
 -0.5413339050     1     4     4     1
 -0.0000000001     1     4     4     2
 0.0001982744     1     4     4     3
 -0.0000868924     1     4     4     5
 0.0002171145     1     4     4    11
 -0.0000000021     1     4     5     1
 0.0390546116     1     4     5     2
 0.0000000004     1     4     5     5
 0.0179719875     1     4     5    10
 0.0000000005     1     4     5    11
 0.0000000004     1     4     6     6
 0.0000000001     1     4     6     7
 0.0170545769     1     4     6     8
 0.0060923073     1     4     6     9
 -0.0000000001     1     4     6    12
 -0.0000000005     1     4     6    13
 0.0000000001     1     4     7     6
 0.0000000006     1     4     7     7
 0.0060923073     1     4     7     8
 -0.0170545769     1     4     7     9
 -0.0000000007     1     4     7    12
 -0.0000000001     1     4     7    13
 0.0163357844     1     4     8     6
 0.0058355373     1     4     8     7
 0.0000000004     1     4     8     8
 0.0000000001     1     4     8     9
 -0.0074209638     1     4     8    12
 -0.0207545558     1     4     8    13
 0.0058355373     1     4     9     6
 -0.0163357844     1     4     9     7
 0.0000000001     1     4     9     8
 0.0000000005     1     4     9     9
 0.0207545558     1     4     9    12
 -0.0074209638     1     4     9    13
 0.0196967787     1     4    10     1
 0.0006689321     1     4    10     3
 0.0171382889     1     4    10     5
 0.0000000005     1     4    10    10
 0.0212311173     1     4    10    11
 0.0000000031     1     4    11     1
 -0.0579341920     1     4    11     2
 0.0000000004     1     4    11     5
 0.0153310169     1     4    11    10
 0.0000000005     1     4    11    11
 -0.0000000004     1     4    12     7
 -0.0052184599     1     4    12     8
 0.0145947104     1     4    12     9
 0.0000000005     1     4    12    12
 -0.0000000004     1     4    13     6
 -0.0145947104     1     4    13     8
 -0.0052184599     1     4    13     9
 0.0000000005     1     4    13    13
 -0.0000000001     1     5     2     1
 0.0017260106     1     5     2     2
 -0.0000010203     1     5     2     4
 -0.0000375512     1     5     2    10
 -0.0004461755     1     5     3     1
 0.0009837642     1     5     3     3
 -0.0000000001     1     5     3    10
 -0.0066569128     1     5     3    11
 -0.0000000021     1     5     4     1
 0.0390554440     1     5     4     2
 0.0000868924     1     5     4     4
 0.0005706242     1     5     4    10
 0.0000000002     1     5     4    11
 -0.5057609848     1     5     5     1
 0.0000000002     1     5     5     2
 0.0175719382     1     5     5     3
 -0.0000000004     1     5     5     4
 0.0033076369     1     5     5    11
 0.0016370112     1     5     6     6
 -0.0000003325     1     5     6    12
 -0.0011223760     1     5     6    13
 0.0016370112     1     5     7     7
 -0.0011223760     1     5     7    12
 0.0000003325     1     5     7    13
 0.0016794005     1     5     8     8
 0.0016794005     1     5     9     9
 -0.0000000172     1     5    10     1
 0.3243413584     1     5    10     2
 0.0000000004     1     5    10     3
 -0.0171382889     1     5    10     4
 0.0034789128     1     5    10    10
 0.0000000002     1     5    10    11
 -0.1681055941     1     5    11     1
 0.0000000001     1     5    11     2
 0.0137408135     1     5    11     3
 -0.0000000004     1     5    11     4
 0.0000000001     1     5    11    10
 0.0092771351     1     5    11    11
 -0.0000003507     1     5    12     6
 -0.0011837109     1     5    12     7
 0.0022902233     1     5    12    12
 -0.0011837109     1     5    13     6
 0.0000003507     1     5    13     7
 0.0022902233     1     5    13    13
 -0.0000187146     1     6     2     8
 -0.0000066853     1     6     2     9
 0.0000022073     1     6     3    12
 0.0074498402     1     6     3    13
 0.0004715650     1     6     4     8
 0.0001684544     1     6     4     9
 -0.0000000001     1     6     4    12
 -0.0000000002     1     6     4    13
 0.0000000386     1     6     5    12
 0.0001300945     1     6     5    13
 -0.5113021732     1     6     6     1
 -0.0000000013     1     6     6     2
 0.0184011802     1     6     6     3
 -0.0000000004     1     6     6     4
 -0.0016370112     1     6     6     5
 0.0034796953     1     6     6    11
 0.0000000031     1     6     7     2
 -0.0000000001     1     6     7     4
 -0.0000000166     1     6     8     1
 0.3129007364     1     6     8     2
 0.0000000004     1     6     8     3
 -0.0163357844     1     6     8     4
 0.0017608072     1     6     8    10
 0.0000000002     1     6     8    11
 -0.0000000061     1     6     9     1
 0.1117757093     1     6     9     2
 0.0000000002     1     6     9     3
 -0.0058355373     1     6     9     4
 0.0006290029     1     6     9    10
 0.0000284588     1     6    10     8
 0.0000101662     1     6    10     9
 -0.0000002428     1     6    11    12
 -0.0008195124     1     6    11    13
 0.0000569205     1     6    12     1
 -0.0000000009     1     6    12     2
 -0.0000043619     1     6    12     3
 0.0000003507     1     6    12     5
 -0.0000018775     1     6    12    11
 0.1921162539     1     6    13     1
 0.0000000004     1     6    13     2
 -0.0147219871     1     6    13     3
 0.0000000004     1     6    13     4
 0.0011837109     1     6    13     5
 -0.0063367988     1     6    13    11
 -0.0000066853     1     7     2     8
 0.0000187146     1     7     2     9
 0.0074498402     1     7     3    12
 -0.0000022073     1     7     3    13
 0.0001684544     1     7     4     8
 -0.0004715650     1     7     4     9
 -0.0000000002     1     7     4    12
 -0.0000000001     1     7     4    13
 0.0001300945     1     7     5    12
 -0.0000000386     1     7     5    13
 0.0000000031     1     7     6     2
 -0.0000000001     1     7     6     4
 -0.5113021732     1     7     7     1
 0.0000000011     1     7     7     2
 0.0184011802     1     7     7     3
 -0.0000000006     1     7     7     4
 -0.0016370112     1     7     7     5
 0.0034796953     1     7     7    11
 -0.0000000057     1     7     8     1
 0.1117757094     1     7     8     2
 0.0000000001     1     7     8     3
 -0.0058355373     1     7     8     4
 0.0006290029     1     7     8    10
 0.0000000166     1     7     9     1
 -0.3129007363     1     7     9     2
 -0.0000000004     1     7     9     3
 0.0163357844     1     7     9     4
 -0.0017608072     1     7     9    10
 -0.0000000002     1     7     9    11
 0.0000101662     1     7    10     8
 -0.0000284588     1     7    10     9
 -0.0008195124     1     7    11    12
 0.0000002428     1     7    11    13
 0.1921162539     1     7    12     1
 -0.0000000004     1     7    12     2
 -0.0147219871     1     7    12     3
 0.0000000004     1     7    12     4
 0.0011837109     1     7    12     5
 -0.0063367988     1     7    12    11
 -0.0000569205     1     7    13     1
 -0.0000000009     1     7    13     2
 0.0000043619     1     7    13     3
 -0.0000003507     1     7    13     5
 0.0000018775     1     7    13    11
 0.0000187146     1     8     2     6
 0.0000066853     1     8     2     7
 -0.0000074326     1     8     2    12
 -0.0000207871     1     8     2    13
 0.0000000002     1     8     3    13
 -0.0004715650     1     8     4     6
 -0.0001684544     1     8     4     7
 -0.0021746819     1     8     4    12
 -0.0060820345     1     8     4    13
 -0.0000000166     1     8     6     1
 0.3129197638     1     8     6     2
 0.0000000005     1     8     6     3
 -0.0170545769     1     8     6     4
 0.0018717815     1     8     6    10
 0.0000000001     1     8     6    11
 -0.0000000057     1     8     7     1
 0.1117825064     1     8     7     2
 0.0000000001     1     8     7     3
 -0.0060923073     1     8     7     4
 0.0006686456     1     8     7    10
 -0.5165923055     1     8     8     1
 -0.0000000011     1     8     8     2
 0.0178894289     1     8     8     3
 -0.0000000004     1     8     8     4
 -0.0016794005     1     8     8     5
 0.0038703035     1     8     8    11
 0.0000000035     1     8     9     2
 -0.0000000001     1     8     9     4
 -0.0000284588     1     8    10     6
 -0.0000101662     1     8    10     7
 0.0001143485     1     8    10    12
 0.0003198038     1     8    10    13
 0.0000000028     1     8    12     1
 -0.0686915534     1     8    12     2
 0.0052184599     1     8    12     4
 -0.0003779480     1     8    12    10
 0.0000000102     1     8    13     1
 -0.1921128723     1     8    13     2
 -0.0000000004     1     8    13     3
 0.0145947104     1     8    13     4
 -0.0010570249     1     8    13    10
 -0.0000000002     1     8    13    11
 0.0000066853     1     9     2     6
 -0.0000187146     1     9     2     7
 0.0000207871     1     9     2    12
 -0.0000074326     1     9     2    13
 -0.0000000002     1     9     3    12
 0.0000000001     1     9     3    13
 -0.0001684544     1     9     4     6
 0.0004715650     1     9     4     7
 0.0060820345     1     9     4    12
 -0.0021746819     1     9     4    13
 -0.0000000061     1     9     6     1
 0.1117825064     1     9     6     2
 0.0000000001     1     9     6     3
 -0.0060923073     1     9     6     4
 0.0006686456     1     9     6    10
 0.0000000166     1     9     7     1
 -0.3129197638     1     9     7     2
 -0.0000000005     1     9     7     3
 0.0170545769     1     9     7     4
 -0.0018717815     1     9     7    10
 -0.0000000001     1     9     7    11
 0.0000000035     1     9     8     2
 -0.0000000001     1     9     8     4
 -0.5165923055     1     9     9     1
 0.0000000013     1     9     9     2
 0.0178894289     1     9     9     3
 -0.0000000005     1     9     9     4
 -0.0016794005     1     9     9     5
 0.0038703035     1     9     9    11
 -0.0000101662     1     9    10     6
 0.0000284588     1     9    10     7
 -0.0003198038     1     9    10    12
 0.0001143485     1     9    10    13
 -0.0000000102     1     9    12     1
 0.1921128723     1     9    12     2
 0.0000000004     1     9    12     3
 -0.0145947104     1     9    12     4
 0.0010570249     1     9    12    10
 0.0000000002     1     9    12    11
 0.0000000045     1     9    13     1
 -0.0686915534     1     9    13     2
 -0.0000000002     1     9    13     3
 0.0052184599     1     9    13     4
 -0.0003779480     1     9    13    10
 -0.0000000001     1     9    13    11
 0.0018376763     1    10     2     1
 -0.0000028605     1    10     2     3
 0.0000375512     1    10     2     5
 0.0000408699     1    10     2    11
 -0.0000000008     1    10     3     1
 0.0151559983     1    10     3     2
 0.0006231643     1    10     3     4
 0.0000000001     1    10     3     5
 -0.0000000002     1    10     3    11
 0.0196967787     1    10     4     1
 0.0013263781     1    10     4     3
 -0.0005706242     1    10     4     5
 0.0057766719     1    10     4    11
 -0.0000000172     1    10     5     1
 0.3243777571     1    10     5     2
 0.0000000005     1    10     5     3
 -0.0179719875     1    10     5     4
 0.0000000002     1    10     5    11
 -0.0018717815     1    10     6     8
 -0.0006686456     1    10     6     9
 -0.0006686456     1    10     7     8
 0.0018717815     1    10     7     9
 -0.0017608072     1    10     8     6
 -0.0006290029     1    10     8     7
 0.0004979417     1    10     8    12
 0.0013926169     1    10     8    13
 -0.0006290029     1    10     9     6
 0.0017608072     1    10     9     7
 -0.0013926169     1    10     9    12
 0.0004979417     1    10     9    13
 -0.5303527200     1    10    10     1
 -0.0000000002     1    10    10     2
 0.0185037601     1    10    10     3
 -0.0000000005     1    10    10     4
 -0.0034789128     1    10    10     5
 0.0022375780     1    10    10    11
 -0.0000000117     1    10    11     1
 0.2210051153     1    10    11     2
 0.0000000004     1    10    11     3
 -0.0153310169     1    10    11     4
 -0.0000000001     1    10    11     5
 0.0000000002     1    10    11    11
 0.0003779480     1    10    12     8
 -0.0010570249     1    10    12     9
 0.0010570249     1    10    13     8
 0.0003779480     1    10    13     9
 -0.0000000001     1    11     2     1
 0.0016931961     1    11     2     2
 0.0000099313     1    11     2     4
 -0.0000408699     1    11     2    10
 -0.0647883134     1    11     3     1
 0.0014094542     1    11     3     3
 0.0066569128     1    11     3     5
 0.0000000002     1    11     3    10
 0.0000000031     1    11     4     1
 -0.0579165050     1    11     4     2
 -0.0002171145     1    11     4     4
 -0.0000000002     1    11     4     5
 -0.0057766719     1    11     4    10
 -0.1681055941     1    11     5     1
 0.0000000001     1    11     5     2
 0.0206132021     1    11     5     3
 -0.0000000005     1    11     5     4
 -0.0033076369     1    11     5     5
 -0.0000000002     1    11     5    10
 -0.0034796953     1    11     6     6
 -0.0000000001     1    11     6     8
 0.0000016670     1    11     6    12
 0.0056264305     1    11     6    13
 -0.0034796953     1    11     7     7
 0.0000000001     1    11     7     9
 0.0056264305     1    11     7    12
 -0.0000016670     1    11     7    13
 -0.0000000002     1    11     8     6
 -0.0038703035     1    11     8     8
 0.0000000002     1    11     8    13
 0.0000000002     1    11     9     7
 -0.0038703035     1    11     9     9
 -0.0000000002     1    11     9    12
 0.0000000001     1    11     9    13
 -0.0000000117     1    11    10     1
 0.2209646381     1    11    10     2
 0.0000000006     1    11    10     3
 -0.0212311173     1    11    10     4
 -0.0000000002     1    11    10     5
 -0.0022375780     1    11    10    10
 -0.5220653762     1    11    11     1
 0.0173450742     1    11    11     3
 -0.0000000005     1    11    11     4
 -0.0092771351     1    11    11     5
 -0.0000000002     1    11    11    10
 0.0000018775     1    11    12     6
 0.0063367988     1    11    12     7
 -0.0000000002     1    11    12     9
 -0.0073590167     1    11    12    12
 0.0063367988     1    11    13     6
 -0.0000018775     1    11    13     7
 0.0000000002     1    11    13     8
 0.0000000001     1    11    13     9
 -0.0073590167     1    11    13    13
 0.0000074326     1    12     2     8
 -0.0000207871     1    12     2     9
 -0.0000022073     1    12     3     6
 -0.0074498402     1    12     3     7
 0.0000000002     1    12     3     9
 0.0000000001     1    12     4     6
 0.0000000002     1    12     4     7
 0.0021746819     1    12     4     8
 -0.0060820345     1    12     4     9
 -0.0000000386     1    12     5     6
 -0.0001300945     1    12     5     7
 0.0000569205     1    12     6     1
 -0.0000000009     1    12     6     2
 -0.0000066248     1    12     6     3
 0.0000000001     1    12     6     4
 0.0000003325     1    12     6     5
 -0.0000016670     1    12     6    11
 0.1921162539     1    12     7     1
 -0.0000000004     1    12     7     2
 -0.0223600388     1    12     7     3
 0.0000000007     1    12     7     4
 0.0011223760     1    12     7     5
 -0.0056264305     1    12     7    11
 0.0000000028     1    12     8     1
 -0.0686840868     1    12     8     2
 -0.0000000001     1    12     8     3
 0.0074209638     1    12     8     4
 -0.0004979417     1    12     8    10
 -0.0000000102     1    12     9     1
 0.1920919904     1    12     9     2
 0.0000000006     1    12     9     3
 -0.0207545558     1    12     9     4
 0.0013926169     1    12     9    10
 0.0000000002     1    12     9    11
 -0.0001143485     1    12    10     8
 0.0003198038     1    12    10     9
 0.0000002428     1    12    11     6
 0.0008195124     1    12    11     7
 -0.5022667461     1    12    12     1
 0.0000000003     1    12    12     2
 0.0194113106     1    12    12     3
 -0.0000000005     1    12    12     4
 -0.0022902233     1    12    12     5
 0.0073590167     1    12    12    11
 0.0000000007     1    12    13     2
 0.0000207871     1    13     2     8
 0.0000074326     1    13     2     9
 -0.0074498402     1    13     3     6
 0.0000022073     1    13     3     7
 -0.0000000002     1    13     3     8
 -0.0000000001     1    13     3     9
 0.0000000002     1    13     4     6
 0.0000000001     1    13     4     7
 0.0060820345     1    13     4     8
 0.0021746819     1    13     4     9
 -0.0001300945     1    13     5     6
 0.0000000386     1    13     5     7
 0.1921162539     1    13     6     1
 0.0000000004     1    13     6     2
 -0.0223600388     1    13     6     3
 0.0000000005     1    13     6     4
 0.0011223760     1    13     6     5
 -0.0056264305     1    13     6    11
 -0.0000569205     1    13     7     1
 -0.0000000009     1    13     7     2
 0.0000066248     1    13     7     3
 0.0000000001     1    13     7     4
 -0.0000003325     1    13     7     5
 0.0000016670     1    13     7    11
 0.0000000102     1    13     8     1
 -0.1920919904     1    13     8     2
 -0.0000000006     1    13     8     3
 0.0207545558     1    13     8     4
 -0.0013926169     1    13     8    10
 -0.0000000002     1    13     8    11
 0.0000000045     1    13     9     1
 -0.0686840868     1    13     9     2
 -0.0000000003     1    13     9     3
 0.0074209638     1    13     9     4
 -0.0004979417     1    13     9    10
 -0.0000000001     1    13     9    11
 -0.0003198038     1    13    10     8
 -0.0001143485     1    13    10     9
 0.0008195124     1    13    11     6
 -0.0000002428     1    13    11     7
 0.0000000007     1    13    12     2
 -0.5022667461     1    13    13     1
 -0.0000000003     1    13    13     2
 0.0194113106     1    13    13     3
 -0.0000000005     1    13    13     4
 -0.0022902233     1    13    13     5
 0.0073590167     1    13    13    11
 -0.1667455928     2     1     1     2
 0.0000282600     2     1     1     4
 -0.0000000001     2     1     1     5
 0.0018376763     2     1     1    10
 -0.0000000001     2     1     1    11
 -0.0000683469     2     1     3     2
 -0.0000000001     2     1     3     3
 0.3732064196     2     1     3     4
 -0.0151586762     2     1     3    10
 0.3731871113     2     1     4     3
 0.0000000001     2     1     4     4
 -0.0390546116     2     1     4     5
 0.0579341920     2     1     4    11
 -0.0017260106     2     1     5     2
 -0.0390554440     2     1     5     4
 -0.0000000002     2     1     5     5
 -0.3243413584     2     1     5    10
 -0.0000000001     2     1     5    11
 0.0000000013     2     1     6     6
 -0.0000000031     2     1     6     7
 -0.3129007364     2     1     6     8
 -0.1117757093     2     1     6     9
 0.0000000009     2     1     6    12
 -0.0000000004     2     1     6    13
 -0.0000000031     2     1     7     6
 -0.0000000011     2     1     7     7
 -0.1117757094     2     1     7     8
 0.3129007363     2     1     7     9
 0.0000000004     2     1     7    12
 0.0000000009     2     1     7    13
 -0.3129197638     2     1     8     6
 -0.1117825064     2     1     8     7
 0.0000000011     2     1     8     8
 -0.0000000035     2     1     8     9
 0.0686915534     2     1     8    12
 0.1921128723     2     1     8    13
 -0.1117825064     2     1     9     6
 0.3129197638     2     1     9     7
 -0.0000000035     2     1     9     8
 -0.0000000013     2     1     9     9
 -0.1921128723     2     1     9    12
 0.0686915534     2     1     9    13
 -0.0151559983     2     1    10     3
 -0.3243777571     2     1    10     5
 0.0000000002     2     1    10    10
 -0.2210051153     2     1    10    11
 -0.0016931961     2     1    11     2
 0.0579165050     2     1    11     4
 -0.0000000001     2     1    11     5
 -0.2209646381     2     1    11    10
 0.0000000009     2     1    12     6
 0.0000000004     2     1    12     7
 0.0686840868     2     1    12     8
 -0.1920919904     2     1    12     9
 -0.0000000003     2     1    12    12
 -0.0000000007     2     1    12    13
 -0.0000000004     2     1    13     6
 0.0000000009     2     1    13     7
 0.1920919904     2     1    13     8
 0.0686840868     2     1    13     9
 -0.0000000007     2     1    13    12
 0.0000000003     2     1    13    13
 0.1667455928     2     2     1     1
 0.0000683469     2     2     1     3
 0.0017260106     2     2     1     5
 0.0016931961     2     2     1    11
 0.0000683469     2     2     3     1
 0.5380243249     2     2     3     3
 0.0000000198     2     2     3     4
 0.0004505600     2     2     3     5
 -0.0000000008     2     2     3    10
 0.0648081229     2     2     3    11
 0.0000000198     2     2     4     3
 0.5413374180     2     2     4     4
 -0.0000000021     2     2     4     5
 -0.0197084039     2     2     4    10
 0.0000000031     2     2     4    11
 0.0017260106     2     2     5     1
 0.0004505600     2     2     5     3
 -0.0000000021     2     2     5     4
 0.5057956098     2     2     5     5
 -0.0000000172     2     2     5    10
 0.1681442568     2     2     5    11
 0.5113205114     2     2     6     6
 -0.0000000166     2     2     6     8
 -0.0000000057     2     2     6     9
 -0.0000569266     2     2     6    12
 -0.1921368652     2     2     6    13
 0.5113205114     2     2     7     7
 -0.0000000061     2     2     7     8
 0.0000000166     2     2     7     9
 -0.1921368652     2     2     7    12
 0.0000569266     2     2     7    13
 -0.0000000166     2     2     8     6
 -0.0000000061     2     2     8     7
 0.5165735626     2     2     8     8
 0.0000000045     2     2     8    12
 0.0000000101     2     2     8    13
 -0.0000000057     2     2     9     6
 0.0000000166     2     2     9     7
 0.5165735626     2     2     9     9
 -0.0000000102     2     2     9    12
 0.0000000028     2     2     9    13
 -0.0000000008     2     2    10     3
 -0.0197084039     2     2    10     4
 -0.0000000172     2     2    10     5
 0.5303161207     2     2    10    10
 -0.0000000118     2     2    10    11
 0.0016931961     2     2    11     1
 0.0648081229     2     2    11     3
 0.0000000031     2     2    11     4
 0.1681442568     2     2    11     5
 -0.0000000118     2     2    11    10
 0.5221147986     2     2    11    11
 -0.0000569266     2     2    12     6
 -0.1921368652     2     2    12     7
 0.0000000045     2     2    12     8
 -0.0000000102     2     2    12     9
 0.5022904722     2     2    12    12
 -0.1921368652     2     2    13     6
 0.0000569266     2     2    13     7
 0.0000000101     2     2    13     8
 0.0000000028     2     2    13     9
 0.5022904722     2     2    13    13
 -0.0000683469     2     3     1     2
 0.0000113532     2     3     1     4
 -0.0000028605     2     3     1    10