&FCI NORB= 19,NELEC= 14,MS2=0,
 ORBSYM=1,1,1,1,1,1,1,1,1,1,1,1,1,1,1,1,1,1,1
 ISYM=1,
&END
 0.1934240955     1     1     2     2
 -0.0001662257     1     1     2     4
 -0.0023808700     1     1     2    10
 0.0019927105     1     1     2    14
 -0.0017930691     1     1     2    18
 0.5529201137     1     1     3     3
 -0.0000000012     1     1     3     4
 0.0020187489     1     1     3     5
 0.0000000001     1     1     3    10
 0.0918160941     1     1     3    11
 0.0000000003     1     1     3    14
 -0.1347755676     1     1     3    17
 0.0000000003     1     1     3    18
 0.0095572091     1     1     3    19
 -0.0001662257     1     1     4     2
 -0.0000000012     1     1     4     3
 0.5586300509     1     1     4     4
 0.0000000002     1     1     4     5
 -0.0240848050     1     1     4    10
 -0.0000000003     1     1     4    11
 -0.1231110475     1     1     4    14
 0.0000000004     1     1     4    17
 -0.1047561031     1     1     4    18
 0.0020187489     1     1     5     3
 0.0000000002     1     1     5     4
 0.5172568544     1     1     5     5
 0.0000000011     1     1     5    10
 0.1545023139     1     1     5    11
 -0.0000000005     1     1     5    14
 0.1191900599     1     1     5    17
 0.0000000003     1     1     5    18
 0.0236876630     1     1     5    19
 0.5221886477     1     1     6     6
 0.0000000009     1     1     6     8
 0.0000000007     1     1     6     9
 0.0017744044     1     1     6    12
 -0.2031708192     1     1     6    13
 0.0000000002     1     1     6    15
 0.0000000007     1     1     6    16
 0.5221886477     1     1     7     7
 0.0000000007     1     1     7     8
 -0.0000000009     1     1     7     9
 -0.2031708192     1     1     7    12
 -0.0017744044     1     1     7    13
 -0.0000000006     1     1     7    15
 0.0000000002     1     1     7    16
 0.0000000009     1     1     8     6
 0.0000000007     1     1     8     7
 0.5320479222     1     1     8     8
 -0.0000000005     1     1     8    12
 -0.0000000006     1     1     8    13
 -0.0770514163     1     1     8    15
 0.1900690766     1     1     8    16
 0.0000000007     1     1     9     6
 -0.0000000009     1     1     9     7
 0.5320479222     1     1     9     9
 0.0000000006     1     1     9    12
 -0.0000000004     1     1     9    13
 0.1900690766     1     1     9    15
 0.0770514163     1     1     9    16
 -0.0023808700     1     1    10     2
 0.0000000001     1     1    10     3
 -0.0240848050     1     1    10     4
 0.0000000011     1     1    10     5
 0.5534229445     1     1    10    10
 0.0000000007     1     1    10    11
 -0.1486083490     1     1    10    14
 0.0000000003     1     1    10    17
 0.1373242341     1     1    10    18
 0.0918160941     1     1    11     3
 -0.0000000003     1     1    11     4
 0.1545023139     1     1    11     5
 0.0000000007     1     1    11    10
 0.5420213916     1     1    11    11
 -0.0000000004     1     1    11    14
 0.0272939347     1     1    11    17
 0.0000000008     1     1    11    18
 0.0010209070     1     1    11    19
 0.0017744044     1     1    12     6
 -0.2031708192     1     1    12     7
 -0.0000000005     1     1    12     8
 0.0000000006     1     1    12     9
 0.5161125084     1     1    12    12
 0.0000000010     1     1    12    15
 -0.0000000003     1     1    12    16
 -0.2031708192     1     1    13     6
 -0.0017744044     1     1    13     7
 -0.0000000006     1     1    13     8
 -0.0000000004     1     1    13     9
 0.5161125084     1     1    13    13
 -0.0000000003     1     1    13    15
 -0.0000000010     1     1    13    16
 0.0019927105     1     1    14     2
 0.0000000003     1     1    14     3
 -0.1231110475     1     1    14     4
 -0.0000000005     1     1    14     5
 -0.1486083490     1     1    14    10
 -0.0000000004     1     1    14    11
 0.4688651189     1     1    14    14
 -0.0000000009     1     1    14    17
 -0.0265017855     1     1    14    18
 -0.0000000001     1     1    14    19
 0.0000000002     1     1    15     6
 -0.0000000006     1     1    15     7
 -0.0770514163     1     1    15     8
 0.1900690766     1     1    15     9
 0.0000000010     1     1    15    12
 -0.0000000003     1     1    15    13
 0.5088964387     1     1    15    15
 0.0000000007     1     1    16     6
 0.0000000002     1     1    16     7
 0.1900690766     1     1    16     8
 0.0770514163     1     1    16     9
 -0.0000000003     1     1    16    12
 -0.0000000010     1     1    16    13
 0.5088964387     1     1    16    16
 -0.1347755676     1     1    17     3
 0.0000000004     1     1    17     4
 0.1191900599     1     1    17     5
 0.0000000003     1     1    17    10
 0.0272939347     1     1    17    11
 -0.0000000009     1     1    17    14
 0.4538004811     1     1    17    17
 -0.0000000002     1     1    17    18
 -0.0001438740     1     1    17    19
 -0.0017930691     1     1    18     2
 0.0000000003     1     1    18     3
 -0.1047561031     1     1    18     4
 0.0000000003     1     1    18     5
 0.1373242341     1     1    18    10
 0.0000000008     1     1    18    11
 -0.0265017855     1     1    18    14
 -0.0000000002     1     1    18    17
 0.4920838744     1     1    18    18
 0.0000000003     1     1    18    19
 0.0095572091     1     1    19     3
 0.0236876630     1     1    19     5
 0.0010209070     1     1    19    11
 -0.0000000001     1     1    19    14
 -0.0001438740     1     1    19    17
 0.0000000003     1     1    19    18
 0.4818915391     1     1    19    19
 -0.1934240955     1     2     2     1
 -0.0000551735     1     2     2     3
 -0.0023193921     1     2     2     5
 -0.0023355612     1     2     2    11
 -0.0014764081     1     2     2    17
 -0.0003065592     1     2     2    19
 0.3617765511     1     2     3     4
 -0.0273626597     1     2     3    10
 -0.1037981481     1     2     3    14
 -0.1113897108     1     2     3    18
 0.0001662257     1     2     4     1
 0.3617807895     1     2     4     3
 -0.0558945821     1     2     4     5
 0.0897034241     1     2     4    11
 -0.1408157337     1     2     4    17
 0.0020119603     1     2     4    19
 -0.0558993844     1     2     5     4
 -0.3263347788     1     2     5    10
 0.1438022297     1     2     5    14
 -0.0972862772     1     2     5    18
 -0.0000000001     1     2     6     6
 0.0000000001     1     2     6     7
 -0.2643308054     1     2     6     8
 -0.2071979619     1     2     6     9
 -0.0528272267     1     2     6    15
 -0.1839340063     1     2     6    16
 0.0000000001     1     2     7     6
 0.0000000001     1     2     7     7
 -0.2071979619     1     2     7     8
 0.2643308054     1     2     7     9
 0.1839340063     1     2     7    15
 -0.0528272267     1     2     7    16
 -0.2643063704     1     2     8     6
 -0.2071788084     1     2     8     7
 -0.0000000001     1     2     8     8
 0.0000000001     1     2     8     9
 0.1274350650     1     2     8    12
 0.1655313287     1     2     8    13
 -0.2071788084     1     2     9     6
 0.2643063704     1     2     9     7
 0.0000000001     1     2     9     8
 0.0000000001     1     2     9     9
 -0.1655313287     1     2     9    12
 0.1274350650     1     2     9    13
 0.0023808700     1     2    10     1
 -0.0273581543     1     2    10     3
 -0.3262734725     1     2    10     5
 -0.2238857146     1     2    10    11
 -0.0878673180     1     2    10    17
 0.0121970691     1     2    10    19
 0.0897004912     1     2    11     4
 -0.2239539640     1     2    11    10
 0.1055933516     1     2    11    14
 -0.2620296566     1     2    11    18
 0.1274571905     1     2    12     8
 -0.1655600685     1     2    12     9
 -0.3140375363     1     2    12    15
 0.0872324620     1     2    12    16
 0.1655600685     1     2    13     8
 0.1274571905     1     2    13     9
 0.0872324620     1     2    13    15
 0.3140375363     1     2    13    16
 -0.0019927105     1     2    14     1
 -0.1038029427     1     2    14     3
 0.1437521511     1     2    14     5
 0.1055388696     1     2    14    11
 0.2938931219     1     2    14    17
 0.0188149763     1     2    14    19
 -0.0528171416     1     2    15     6
 0.1838988923     1     2    15     7
 -0.3139960762     1     2    15    12
 0.0872209454     1     2    15    13
 -0.1838988923     1     2    16     6
 -0.0528171416     1     2    16     7
 0.0872209454     1     2    16    12
 0.3139960762     1     2    16    13
 -0.1408169278     1     2    17     4
 -0.0879082276     1     2    17    10
 0.2939259257     1     2    17    14
 0.0417283375     1     2    17    18
 0.0017930691     1     2    18     1
 -0.1113864593     1     2    18     3
 -0.0972382947     1     2    18     5
 -0.2619779895     1     2    18    11
 0.0417590913     1     2    18    17
 -0.0785302326     1     2    18    19
 0.0020116247     1     2    19     4
 0.0121858785     1     2    19    10
 0.0188242947     1     2    19    14
 -0.0785386171     1     2    19    18
 0.0000551735     1     3     2     2
 -0.0000039757     1     3     2     4
 -0.0000044261     1     3     2    10
 0.0000044457     1     3     2    14
 -0.0000024747     1     3     2    18
 -0.5529201137     1     3     3     1
 -0.0014853354     1     3     3     5
 -0.0019780346     1     3     3    11
 -0.0006244792     1     3     3    17
 -0.0002288082     1     3     3    19
 0.0000000012     1     3     4     1
 -0.3617807895     1     3     4     2
 -0.0002597025     1     3     4     4
 -0.0022888431     1     3     4    10
 0.0023146926     1     3     4    14
 -0.0012519692     1     3     4    18
 -0.0020187489     1     3     5     1
 -0.0173311330     1     3     5     5
 -0.0192165803     1     3     5    11
 -0.0121605620     1     3     5    17
 -0.0011566683     1     3     5    19
 -0.0182932440     1     3     6     6
 -0.0001972597     1     3     6    12
 0.0225864020     1     3     6    13
 -0.0182932440     1     3     7     7
 0.0225864020     1     3     7    12
 0.0001972597     1     3     7    13
 -0.0182866402     1     3     8     8
 0.0082852554     1     3     8    15
 -0.0204379222     1     3     8    16
 -0.0182866402     1     3     9     9
 -0.0204379222     1     3     9    15
 -0.0082852554     1     3     9    16
 -0.0000000001     1     3    10     1
 0.0273581543     1     3    10     2
 -0.0014429713     1     3    10     4
 -0.0192171374     1     3    10    10
 0.0167636480     1     3    10    14
 -0.0146356865     1     3    10    18
 -0.0918160941     1     3    11     1
 -0.0130643149     1     3    11     5
 -0.0150710267     1     3    11    11
 -0.0092356936     1     3    11    17
 -0.0007010025     1     3    11    19
 -0.0001340107     1     3    12     6
 0.0153443421     1     3    12     7
 -0.0196334523     1     3    12    12
 0.0153443421     1     3    13     6
 0.0001340107     1     3    13     7
 -0.0196334523     1     3    13    13
 -0.0000000003     1     3    14     1
 0.1038029427     1     3    14     2
 0.0008696487     1     3    14     4
 0.0117772125     1     3    14    10
 -0.0110280223     1     3    14    14
 0.0089954014     1     3    14    18
 0.0057669774     1     3    15     8
 -0.0142258783     1     3    15     9
 -0.0192176538     1     3    15    15
 -0.0142258783     1     3    16     8
 -0.0057669774     1     3    16     9
 -0.0192176538     1     3    16    16
 0.1347755676     1     3    17     1
 -0.0078207472     1     3    17     5
 -0.0086822574     1     3    17    11
 -0.0061935444     1     3    17    17
 -0.0004930261     1     3    17    19
 -0.0000000003     1     3    18     1
 0.1113864593     1     3    18     2
 -0.0006715936     1     3    18     4
 -0.0097306716     1     3    18    10
 0.0085834535     1     3    18    14
 -0.0081490658     1     3    18    18
 -0.0095572091     1     3    19     1
 -0.0008010743     1     3    19     5
 -0.0008376735     1     3    19    11
 -0.0006147623     1     3    19    17
 -0.0027900805     1     3    19    19
 0.0001662257     1     4     2     1
 0.0000039757     1     4     2     3
 0.0000041716     1     4     2     5
 0.0000032282     1     4     2    11
 0.0000014229     1     4     2    17
 0.0000005820     1     4     2    19
 0.0000000012     1     4     3     1
 -0.3617765511     1     4     3     2
 -0.0008734078     1     4     3    10
 0.0014552105     1     4     3    14
 -0.0005881110     1     4     3    18
 -0.5586300509     1     4     4     1
 0.0002597025     1     4     4     3
 0.0001169688     1     4     4     5
 0.0002369047     1     4     4    11
 0.0007465153     1     4     4    17
 -0.0000138246     1     4     4    19
 -0.0000000002     1     4     5     1
 0.0558993844     1     4     5     2
 0.0183906376     1     4     5    10
 -0.0156324570     1     4     5    14
 0.0146083305     1     4     5    18
 0.0144402916     1     4     6     8
 0.0113191461     1     4     6     9
 0.0061794368     1     4     6    15
 0.0215155828     1     4     6    16
 0.0113191461     1     4     7     8
 -0.0144402916     1     4     7     9
 -0.0215155828     1     4     7    15
 0.0061794368     1     4     7    16
 0.0143043531     1     4     8     6
 0.0112125895     1     4     8     7
 -0.0139870767     1     4     8    12
 -0.0181684641     1     4     8    13
 0.0112125895     1     4     9     6
 -0.0143043531     1     4     9     7
 0.0181684641     1     4     9    12
 -0.0139870767     1     4     9    13
 0.0240848050     1     4    10     1
 0.0014429713     1     4    10     3
 0.0181364144     1     4    10     5
 0.0210274242     1     4    10    11
 0.0122353000     1     4    10    17
 0.0017519211     1     4    10    19
 0.0000000003     1     4    11     1
 -0.0897004912     1     4    11     2
 0.0149694201     1     4    11    10
 -0.0125451963     1     4    11    14
 0.0125801259     1     4    11    18
 -0.0098062058     1     4    12     8
 0.0127377364     1     4    12     9
 0.0193294336     1     4    12    15
 -0.0053692756     1     4    12    16
 -0.0127377364     1     4    13     8
 -0.0098062058     1     4    13     9
 -0.0053692756     1     4    13    15
 -0.0193294336     1     4    13    16
 0.1231110475     1     4    14     1
 -0.0008696487     1     4    14     3
 -0.0108139310     1     4    14     5
 -0.0126230316     1     4    14    11
 -0.0075291248     1     4    14    17
 -0.0010377019     1     4    14    19
 0.0042106002     1     4    15     6
 -0.0146604812     1     4    15     7
 0.0188390383     1     4    15    12
 -0.0052330550     1     4    15    13
 0.0146604812     1     4    16     6
 0.0042106002     1     4    16     7
 -0.0052330550     1     4    16    12
 -0.0188390383     1     4    16    13
 -0.0000000004     1     4    17     1
 0.1408169278     1     4    17     2
 0.0088456137     1     4    17    10
 -0.0078137898     1     4    17    14
 0.0069619176     1     4    17    18
 0.1047561031     1     4    18     1
 0.0006715936     1     4    18     3
 0.0089328896     1     4    18     5
 0.0109501733     1     4    18    11
 0.0056792384     1     4    18    17
 0.0013011493     1     4    18    19
 -0.0020116247     1     4    19     2
 0.0005457961     1     4    19    10
 -0.0002928206     1     4    19    14
 0.0007067801     1     4    19    18
 0.0023193921     1     5     2     2
 -0.0000041716     1     5     2     4
 -0.0000628547     1     5     2    10
 0.0000503613     1     5     2    14
 -0.0000464058     1     5     2    18
 -0.0020187489     1     5     3     1
 0.0014853354     1     5     3     3
 -0.0062981352     1     5     3    11
 -0.0044208755     1     5     3    17
 -0.0003543859     1     5     3    19
 -0.0000000002     1     5     4     1
 0.0558945821     1     5     4     2
 -0.0001169688     1     5     4     4
 0.0003493587     1     5     4    10
 -0.0049152689     1     5     4    14
 0.0057601984     1     5     4    18
 -0.5172568544     1     5     5     1
 0.0173311330     1     5     5     3
 0.0040156691     1     5     5    11
 -0.0081132810     1     5     5    17
 0.0078282059     1     5     5    19
 0.0023023909     1     5     6     6
 0.0000106472     1     5     6    12
 -0.0012191116     1     5     6    13
 0.0023023909     1     5     7     7
 -0.0012191116     1     5     7    12
 -0.0000106472     1     5     7    13
 0.0022612920     1     5     8     8
 -0.0007489691     1     5     8    15
 0.0018475440     1     5     8    16
 0.0022612920     1     5     9     9
 0.0018475440     1     5     9    15
 0.0007489691     1     5     9    16
 -0.0000000011     1     5    10     1
 0.3262734725     1     5    10     2
 -0.0181364144     1     5    10     4
 0.0050237451     1     5    10    10
 0.0047669009     1     5    10    14
 0.0107732867     1     5    10    18
 -0.1545023139     1     5    11     1
 0.0130643149     1     5    11     3
 0.0118771860     1     5    11    11
 -0.0088151371     1     5    11    17
 0.0044760939     1     5    11    19
 0.0000121368     1     5    12     6
 -0.0013896708     1     5    12     7
 0.0029849212     1     5    12    12
 -0.0013896708     1     5    13     6
 -0.0000121368     1     5    13     7
 0.0029849212     1     5    13    13
 0.0000000005     1     5    14     1
 -0.1437521511     1     5    14     2
 0.0108139310     1     5    14     4
 -0.0023057457     1     5    14    10
 -0.0070553886     1     5    14    14
 -0.0077456000     1     5    14    18
 -0.0004900866     1     5    15     8
 0.0012089371     1     5    15     9
 0.0022000917     1     5    15    15
 0.0012089371     1     5    16     8
 0.0004900866     1     5    16     9
 0.0022000917     1     5    16    16
 -0.1191900599     1     5    17     1
 0.0078207472     1     5    17     3
 0.0035585904     1     5    17    11
 -0.0065688372     1     5    17    17
 0.0021958583     1     5    17    19
 -0.0000000003     1     5    18     1
 0.0972382947     1     5    18     2
 -0.0089328896     1     5    18     4
 0.0018524725     1     5    18    10
 0.0059960281     1     5    18    14
 0.0088099576     1     5    18    18
 -0.0236876630     1     5    19     1
 0.0008010743     1     5    19     3
 -0.0048000874     1     5    19    11
 -0.0043671005     1     5    19    17
 0.0008999479     1     5    19    19
 -0.0000252407     1     6     2     8
 -0.0000197852     1     6     2     9
 -0.0000101015     1     6     2    15
 -0.0000351714     1     6     2    16
 -0.0000649890     1     6     3    12
 0.0074412906     1     6     3    13
 0.0001952427     1     6     4     8
 0.0001530427     1     6     4     9
 0.0020124463     1     6     4    15
 0.0070069419     1     6     4    16
 -0.0000014739     1     6     5    12
 0.0001687705     1     6     5    13
 -0.5221886477     1     6     6     1
 0.0000000001     1     6     6     2
 0.0182932440     1     6     6     3
 -0.0023023909     1     6     6     5
 0.0048864102     1     6     6    11
 -0.0093082918     1     6     6    17
 -0.0037240849     1     6     6    19
 -0.0000000001     1     6     7     2
 -0.0000000009     1     6     8     1
 0.2643063704     1     6     8     2
 -0.0143043531     1     6     8     4
 0.0024176377     1     6     8    10
 0.0049053234     1     6     8    14
 0.0057892192     1     6     8    18
 -0.0000000007     1     6     9     1
 0.2071788084     1     6     9     2
 -0.0112125895     1     6     9     4
 0.0018950861     1     6     9    10
 0.0038450797     1     6     9    14
 0.0045379289     1     6     9    18
 0.0000324719     1     6    10     8
 0.0000254534     1     6    10     9
 -0.0000861525     1     6    10    15
 -0.0002999662     1     6    10    16
 0.0000093181     1     6    11    12
 -0.0010669264     1     6    11    13
 -0.0017744044     1     6    12     1
 0.0001340107     1     6    12     3
 -0.0000121368     1     6    12     5
 0.0000803746     1     6    12    11
 -0.0001126572     1     6    12    17
 -0.0000129797     1     6    12    19
 0.2031708192     1     6    13     1
 -0.0153443421     1     6    13     3
 0.0013896708     1     6    13     5
 -0.0092029601     1     6    13    11
 0.0128993403     1     6    13    17
 0.0014861875     1     6    13    19
 -0.0000196070     1     6    14     8
 -0.0000153690     1     6    14     9
 0.0003620482     1     6    14    15
 0.0012605805     1     6    14    16
 -0.0000000002     1     6    15     1
 0.0528171416     1     6    15     2
 -0.0042106002     1     6    15     4
 0.0004965931     1     6    15    10
 0.0029369902     1     6    15    14
 0.0030448971     1     6    15    18
 -0.0000000007     1     6    16     1
 0.1838988923     1     6    16     2
 -0.0146604812     1     6    16     4
 0.0017290393     1     6    16    10
 0.0102260219     1     6    16    14
 0.0106017322     1     6    16    18
 -0.0000176251     1     6    17    12
 0.0020180886     1     6    17    13
 -0.0001679150     1     6    18     8
 -0.0001316217     1     6    18     9
 0.0007556493     1     6    18    15
 0.0026310222     1     6    18    16
 0.0000290994     1     6    19    12
 -0.0033319095     1     6    19    13
 -0.0000197852     1     7     2     8
 0.0000252407     1     7     2     9
 0.0000351714     1     7     2    15
 -0.0000101015     1     7     2    16
 0.0074412906     1     7     3    12
 0.0000649890     1     7     3    13
 0.0001530427     1     7     4     8
 -0.0001952427     1     7     4     9
 -0.0070069419     1     7     4    15
 0.0020124463     1     7     4    16
 0.0001687705     1     7     5    12
 0.0000014739     1     7     5    13
 -0.0000000001     1     7     6     2
 -0.5221886477     1     7     7     1
 -0.0000000001     1     7     7     2
 0.0182932440     1     7     7     3
 -0.0023023909     1     7     7     5
 0.0048864102     1     7     7    11
 -0.0093082918     1     7     7    17
 -0.0037240849     1     7     7    19
 -0.0000000007     1     7     8     1
 0.2071788084     1     7     8     2
 -0.0112125895     1     7     8     4
 0.0018950861     1     7     8    10
 0.0038450797     1     7     8    14
 0.0045379289     1     7     8    18
 0.0000000009     1     7     9     1
 -0.2643063704     1     7     9     2
 0.0143043531     1     7     9     4
 -0.0024176377     1     7     9    10
 -0.0049053234     1     7     9    14
 -0.0057892192     1     7     9    18
 0.0000254534     1     7    10     8
 -0.0000324719     1     7    10     9
 0.0002999662     1     7    10    15
 -0.0000861525     1     7    10    16
 -0.0010669264     1     7    11    12
 -0.0000093181     1     7    11    13
 0.2031708192     1     7    12     1
 -0.0153443421     1     7    12     3
 0.0013896708     1     7    12     5
 -0.0092029601     1     7    12    11
 0.0128993403     1     7    12    17
 0.0014861875     1     7    12    19
 0.0017744044     1     7    13     1
 -0.0001340107     1     7    13     3
 0.0000121368     1     7    13     5
 -0.0000803746     1     7    13    11
 0.0001126572     1     7    13    17
 0.0000129797     1     7    13    19
 -0.0000153690     1     7    14     8
 0.0000196070     1     7    14     9
 -0.0012605805     1     7    14    15
 0.0003620482     1     7    14    16
 0.0000000006     1     7    15     1
 -0.1838988923     1     7    15     2
 0.0146604812     1     7    15     4
 -0.0017290393     1     7    15    10
 -0.0102260219     1     7    15    14
 -0.0106017322     1     7    15    18
 -0.0000000002     1     7    16     1
 0.0528171416     1     7    16     2
 -0.0042106002     1     7    16     4
 0.0004965931     1     7    16    10
 0.0029369902     1     7    16    14
 0.0030448971     1     7    16    18
 0.0020180886     1     7    17    12
 0.0000176251     1     7    17    13
 -0.0001316217     1     7    18     8
 0.0001679150     1     7    18     9
 -0.0026310222     1     7    18    15
 0.0007556493     1     7    18    16
 -0.0033319095     1     7    19    12
 -0.0000290994     1     7    19    13
 0.0000252407     1     8     2     6
 0.0000197852     1     8     2     7
 -0.0000227057     1     8     2    12
 -0.0000294935     1     8     2    13
 0.0023894271     1     8     3    15
 -0.0058941965     1     8     3    16
 -0.0001952427     1     8     4     6
 -0.0001530427     1     8     4     7
 -0.0039983527     1     8     4    12
 -0.0051936461     1     8     4    13
 -0.0002381377     1     8     5    15
 0.0005874338     1     8     5    16
 -0.0000000009     1     8     6     1
 0.2643308054     1     8     6     2
 -0.0144402916     1     8     6     4
 0.0024311861     1     8     6    10
 0.0049390353     1     8     6    14
 0.0060102243     1     8     6    18
 -0.0000000007     1     8     7     1
 0.2071979619     1     8     7     2
 -0.0113191461     1     8     7     4
 0.0019057060     1     8     7    10
 0.0038715051     1     8     7    14
 0.0047111658     1     8     7    18
 -0.5320479222     1     8     8     1
 0.0000000001     1     8     8     2
 0.0182866402     1     8     8     3
 -0.0022612920     1     8     8     5
 0.0058366999     1     8     8    11
 -0.0096594886     1     8     8    17
 -0.0038706825     1     8     8    19
 -0.0000000001     1     8     9     2
 -0.0000324719     1     8    10     6
 -0.0000254534     1     8    10     7
 0.0004100775     1     8    10    12
 0.0005326688     1     8    10    13
 -0.0001154326     1     8    11    15
 0.0002847470     1     8    11    16
 0.0000000005     1     8    12     1
 -0.1274571905     1     8    12     2
 0.0098062058     1     8    12     4
 -0.0012213257     1     8    12    10
 -0.0063073071     1     8    12    14
 -0.0068047863     1     8    12    18
 0.0000000006     1     8    13     1
 -0.1655600685     1     8    13     2
 0.0127377364     1     8    13     4
 -0.0015864368     1     8    13    10
 -0.0081928543     1     8    13    14
 -0.0088390533     1     8    13    18
 0.0000196070     1     8    14     6
 0.0000153690     1     8    14     7
 -0.0007114319     1     8    14    12
 -0.0009241119     1     8    14    13
 0.0770514163     1     8    15     1
 -0.0057669774     1     8    15     3
 0.0004900866     1     8    15     5
 -0.0031508781     1     8    15    11
 0.0049514910     1     8    15    17
 0.0005365493     1     8    15    19
 -0.1900690766     1     8    16     1
 0.0142258783     1     8    16     3
 -0.0012089371     1     8    16     5
 0.0077725303     1     8    16    11
 -0.0122142509     1     8    16    17
 -0.0013235505     1     8    16    19
 0.0005663750     1     8    17    15
 -0.0013971238     1     8    17    16
 0.0001679150     1     8    18     6
 0.0001316217     1     8    18     7
 -0.0015035404     1     8    18    12
 -0.0019530184     1     8    18    13
 -0.0012962965     1     8    19    15
 0.0031976814     1     8    19    16
 0.0000197852     1     9     2     6
 -0.0000252407     1     9     2     7
 0.0000294935     1     9     2    12
 -0.0000227057     1     9     2    13
 -0.0058941965     1     9     3    15
 -0.0023894271     1     9     3    16
 -0.0001530427     1     9     4     6
 0.0001952427     1     9     4     7
 0.0051936461     1     9     4    12
 -0.0039983527     1     9     4    13
 0.0005874338     1     9     5    15
 0.0002381377     1     9     5    16
 -0.0000000007     1     9     6     1
 0.2071979619     1     9     6     2
 -0.0113191461     1     9     6     4
 0.0019057060     1     9     6    10
 0.0038715051     1     9     6    14
 0.0047111658     1     9     6    18
 0.0000000009     1     9     7     1
 -0.2643308054     1     9     7     2
 0.0144402916     1     9     7     4
 -0.0024311861     1     9     7    10
 -0.0049390353     1     9     7    14
 -0.0060102243     1     9     7    18
 -0.0000000001     1     9     8     2
 -0.5320479222     1     9     9     1
 -0.0000000001     1     9     9     2
 0.0182866402     1     9     9     3
 -0.0022612920     1     9     9     5
 0.0058366999     1     9     9    11
 -0.0096594886     1     9     9    17
 -0.0038706825     1     9     9    19
 -0.0000254534     1     9    10     6
 0.0000324719     1     9    10     7
 -0.0005326688     1     9    10    12
 0.0004100775     1     9    10    13
 0.0002847470     1     9    11    15
 0.0001154326     1     9    11    16
 -0.0000000006     1     9    12     1
 0.1655600685     1     9    12     2
 -0.0127377364     1     9    12     4
 0.0015864368     1     9    12    10
 0.0081928543     1     9    12    14
 0.0088390533     1     9    12    18
 0.0000000004     1     9    13     1
 -0.1274571905     1     9    13     2
 0.0098062058     1     9    13     4
 -0.0012213257     1     9    13    10
 -0.0063073071     1     9    13    14
 -0.0068047863     1     9    13    18
 0.0000153690     1     9    14     6
 -0.0000196070     1     9    14     7
 0.0009241119     1     9    14    12
 -0.0007114319     1     9    14    13
 -0.1900690766     1     9    15     1
 0.0142258783     1     9    15     3
 -0.0012089371     1     9    15     5
 0.0077725303     1     9    15    11
 -0.0122142509     1     9    15    17
 -0.0013235505     1     9    15    19
 -0.0770514163     1     9    16     1
 0.0057669774     1     9    16     3
 -0.0004900866     1     9    16     5
 0.0031508781     1     9    16    11
 -0.0049514910     1     9    16    17
 -0.0005365493     1     9    16    19
 -0.0013971238     1     9    17    15
 -0.0005663750     1     9    17    16
 0.0001316217     1     9    18     6
 -0.0001679150     1     9    18     7
 0.0019530184     1     9    18    12
 -0.0015035404     1     9    18    13
 0.0031976814     1     9    19    15
 0.0012962965     1     9    19    16
 0.0023808700     1    10     2     1
 0.0000044261     1    10     2     3
 0.0000628547     1    10     2     5
 0.0000714396     1    10     2    11
 0.0000419358     1    10     2    17
 0.0000113389     1    10     2    19
 -0.0000000001     1    10     3     1