&FCI NORB= 13,NELEC= 14,MS2=0,
 ORBSYM=1,1,1,1,1,1,1,1,1,1,1,1,1
 ISYM=1,
&END
 0.4837667779     1     1     2     2
 0.0077478945     1     1     2     4
 0.0006362558     1     1     2    10
 0.8033522902     1     1     3     3
 0.1011319907     1     1     3     5
 -0.0935763681     1     1     3    11
 0.0077478945     1     1     4     2
 0.6361681281     1     1     4     4
 -0.1197553038     1     1     4    10
 0.1011319907     1     1     5     3
 0.6755675491     1     1     5     5
 -0.1495492285     1     1     5    11
 0.6736486642     1     1     6     6
 -0.0612707109     1     1     6    12
 0.2049912051     1     1     6    13
 0.6736486642     1     1     7     7
 0.2049912051     1     1     7    12
 0.0612707109     1     1     7    13
 0.6047052614     1     1     8     8
 0.6047052614     1     1     9     9
 0.0006362558     1     1    10     2
 -0.1197553038     1     1    10     4
 0.4012963690     1     1    10    10
 -0.0935763681     1     1    11     3
 -0.1495492285     1     1    11     5
 0.4837783295     1     1    11    11
 -0.0612707109     1     1    12     6
 0.2049912051     1     1    12     7
 0.5709966933     1     1    12    12
 0.2049912051     1     1    13     6
 0.0612707109     1     1    13     7
 0.5709966933     1     1    13    13
 -0.4837667779     1     2     2     1
 -0.0103862933     1     2     2     3
 -0.0168295785     1     2     2     5
 0.0111924472     1     2     2    11
 -0.1432141555     1     2     3     4
 0.0920940716     1     2     3    10
 -0.0077478945     1     2     4     1
 -0.1435592970     1     2     4     3
 0.2334679958     1     2     4     5
 -0.0202072407     1     2     4    11
 0.2340088704     1     2     5     4
 0.0062239115     1     2     5    10
 0.0309259232     1     2     6     8
 0.1819225834     1     2     6     9
 0.1819225834     1     2     7     8
 -0.0309259232     1     2     7     9
 0.0308422896     1     2     8     6
 0.1814306069     1     2     8     7
 0.1135203718     1     2     8    12
 0.0560778327     1     2     8    13
 0.1814306069     1     2     9     6
 -0.0308422896     1     2     9     7
 -0.0560778327     1     2     9    12
 0.1135203718     1     2     9    13
 -0.0006362558     1     2    10     1
 0.0919690234     1     2    10     3
 0.0061729517     1     2    10     5
 0.0494020941     1     2    10    11
 -0.0205767951     1     2    11     4
 0.0493585111     1     2    11    10
 0.1139399498     1     2    12     8
 -0.0562850997     1     2    12     9
 0.0562850997     1     2    13     8
 0.1139399498     1     2    13     9
 0.0103862933     1     3     2     2
 0.0003325993     1     3     2     4
 0.0000755673     1     3     2    10
 -0.8033522902     1     3     3     1
 -0.0220436279     1     3     3     5
 0.0155615049     1     3     3    11
 0.1435592970     1     3     4     2
 -0.0091795596     1     3     4     4
 -0.0001556099     1     3     4    10
 -0.1011319907     1     3     5     1
 -0.0244445616     1     3     5     5
 0.0116311395     1     3     5    11
 -0.0170539576     1     3     6     6
 0.0059037588     1     3     6    12
 -0.0197519925     1     3     6    13
 -0.0170539576     1     3     7     7
 -0.0197519925     1     3     7    12
 -0.0059037588     1     3     7    13
 -0.0137224734     1     3     8     8
 -0.0137224734     1     3     9     9
 -0.0919690234     1     3    10     2
 -0.0013165311     1     3    10     4
 -0.0005370867     1     3    10    10
 0.0935763681     1     3    11     1
 0.0111119597     1     3    11     5
 -0.0064244809     1     3    11    11
 0.0034509445     1     3    12     6
 -0.0115457003     1     3    12     7
 -0.0139569211     1     3    12    12
 -0.0115457003     1     3    13     6
 -0.0034509445     1     3    13     7
 -0.0139569211     1     3    13    13
 -0.0077478945     1     4     2     1
 -0.0003325993     1     4     2     3
 -0.0005427406     1     4     2     5
 0.0003836916     1     4     2    11
 0.1432141555     1     4     3     2
 0.0013706775     1     4     3    10
 -0.6361681281     1     4     4     1
 0.0091795596     1     4     4     3
 0.0022038285     1     4     4     5
 -0.0064333075     1     4     4    11
 -0.2340088704     1     4     5     2
 0.0047427108     1     4     5    10
 0.0018052149     1     4     6     8
 0.0106192257     1     4     6     9
 0.0106192257     1     4     7     8
 -0.0018052149     1     4     7     9
 0.0021583877     1     4     8     6
 0.0126967747     1     4     8     7
 0.0169060782     1     4     8    12
 0.0083514193     1     4     8    13
 0.0126967747     1     4     9     6
 -0.0021583877     1     4     9     7
 -0.0083514193     1     4     9    12
 0.0169060782     1     4     9    13
 0.1197553038     1     4    10     1
 0.0013165311     1     4    10     3
 0.0031020926     1     4    10     5
 -0.0041276229     1     4    10    11
 0.0205767951     1     4    11     2
 -0.0043404817     1     4    11    10
 0.0096641230     1     4    12     8
 -0.0047739720     1     4    12     9
 0.0047739720     1     4    13     8
 0.0096641230     1     4    13     9
 0.0168295785     1     5     2     2
 0.0005427406     1     5     2     4
 0.0000507813     1     5     2    10
 -0.1011319907     1     5     3     1
 0.0220436279     1     5     3     3
 0.0004770048     1     5     3    11
 -0.2334679958     1     5     4     2
 -0.0022038285     1     5     4     4
 0.0014853563     1     5     4    10
 -0.6755675491     1     5     5     1
 0.0244445616     1     5     5     3
 -0.0097816557     1     5     5    11
 0.0148001313     1     5     6     6
 -0.0033094534     1     5     6    12
 0.0110723188     1     5     6    13
 0.0148001313     1     5     7     7
 0.0110723188     1     5     7    12
 0.0033094534     1     5     7    13
 0.0086711723     1     5     8     8
 0.0086711723     1     5     9     9
 -0.0061729517     1     5    10     2
 -0.0031020926     1     5    10     4
 0.0008714874     1     5    10    10
 0.1495492285     1     5    11     1
 -0.0111119597     1     5    11     3
 0.0036888513     1     5    11    11
 -0.0019621680     1     5    12     6
 0.0065647545     1     5    12     7
 0.0083116307     1     5    12    12
 0.0065647545     1     5    13     6
 0.0019621680     1     5    13     7
 0.0083116307     1     5    13    13
 0.0000803802     1     6     2     8
 0.0004728382     1     6     2     9
 0.0023843374     1     6     3    12
 -0.0079771915     1     6     3    13
 -0.0004359287     1     6     4     8
 -0.0025643624     1     6     4     9
 -0.0012811783     1     6     5    12
 0.0042863918     1     6     5    13
 -0.6736486642     1     6     6     1
 0.0170539576     1     6     6     3
 -0.0148001313     1     6     6     5
 0.0073632148     1     6     6    11
 -0.0308422896     1     6     8     2
 -0.0021583877     1     6     8     4
 0.0015503664     1     6     8    10
 -0.1814306069     1     6     9     2
 -0.0126967747     1     6     9     4
 0.0091200724     1     6     9    10
 0.0001598816     1     6    10     8
 0.0009405082     1     6    10     9
 0.0013259099     1     6    11    12
 -0.0044360490     1     6    11    13
 0.0612707109     1     6    12     1
 -0.0034509445     1     6    12     3
 0.0019621680     1     6    12     5
 -0.0000999696     1     6    12    11
 -0.2049912051     1     6    13     1
 0.0115457003     1     6    13     3
 -0.0065647545     1     6    13     5
 0.0003344648     1     6    13    11
 0.0004728382     1     7     2     8
 -0.0000803802     1     7     2     9
 -0.0079771915     1     7     3    12
 -0.0023843374     1     7     3    13
 -0.0025643624     1     7     4     8
 0.0004359287     1     7     4     9
 0.0042863918     1     7     5    12
 0.0012811783     1     7     5    13
 -0.6736486642     1     7     7     1
 0.0170539576     1     7     7     3
 -0.0148001313     1     7     7     5
 0.0073632148     1     7     7    11
 -0.1814306069     1     7     8     2
 -0.0126967747     1     7     8     4
 0.0091200724     1     7     8    10
 0.0308422896     1     7     9     2
 0.0021583877     1     7     9     4
 -0.0015503664     1     7     9    10
 0.0009405082     1     7    10     8
 -0.0001598816     1     7    10     9
 -0.0044360490     1     7    11    12
 -0.0013259099     1     7    11    13
 -0.2049912051     1     7    12     1
 0.0115457003     1     7    12     3
 -0.0065647545     1     7    12     5
 0.0003344648     1     7    12    11
 -0.0612707109     1     7    13     1
 0.0034509445     1     7    13     3
 -0.0019621680     1     7    13     5
 0.0000999696     1     7    13    11
 -0.0000803802     1     8     2     6
 -0.0004728382     1     8     2     7
 -0.0004288373     1     8     2    12
 -0.0002118410     1     8     2    13
 0.0004359287     1     8     4     6
 0.0025643624     1     8     4     7
 0.0068165311     1     8     4    12
 0.0033672924     1     8     4    13
 -0.0309259232     1     8     6     2
 -0.0018052149     1     8     6     4
 0.0013386995     1     8     6    10
 -0.1819225834     1     8     7     2
 -0.0106192257     1     8     7     4
 0.0078749359     1     8     7    10
 -0.6047052614     1     8     8     1
 0.0137224734     1     8     8     3
 -0.0086711723     1     8     8     5
 0.0011233671     1     8     8    11
 -0.0001598816     1     8    10     6
 -0.0009405082     1     8    10     7
 -0.0023648361     1     8    10    12
 -0.0011682034     1     8    10    13
 -0.1139399498     1     8    12     2
 -0.0096641230     1     8    12     4
 0.0069075093     1     8    12    10
 -0.0562850997     1     8    13     2
 -0.0047739720     1     8    13     4
 0.0034122347     1     8    13    10
 -0.0004728382     1     9     2     6
 0.0000803802     1     9     2     7
 0.0002118410     1     9     2    12
 -0.0004288373     1     9     2    13
 0.0025643624     1     9     4     6
 -0.0004359287     1     9     4     7
 -0.0033672924     1     9     4    12
 0.0068165311     1     9     4    13
 -0.1819225834     1     9     6     2
 -0.0106192257     1     9     6     4
 0.0078749359     1     9     6    10
 0.0309259232     1     9     7     2
 0.0018052149     1     9     7     4
 -0.0013386995     1     9     7    10
 -0.6047052614     1     9     9     1
 0.0137224734     1     9     9     3
 -0.0086711723     1     9     9     5
 0.0011233671     1     9     9    11
 -0.0009405082     1     9    10     6
 0.0001598816     1     9    10     7
 0.0011682034     1     9    10    12
 -0.0023648361     1     9    10    13
 0.0562850997     1     9    12     2
 0.0047739720     1     9    12     4
 -0.0034122347     1     9    12    10
 -0.1139399498     1     9    13     2
 -0.0096641230     1     9    13     4
 0.0069075093     1     9    13    10
 -0.0006362558     1    10     2     1
 -0.0000755673     1    10     2     3
 -0.0000507813     1    10     2     5
 0.0000397748     1    10     2    11
 -0.0920940716     1    10     3     2
 -0.0013706775     1    10     3     4
 0.1197553038     1    10     4     1
 0.0001556099     1    10     4     3
 -0.0014853563     1    10     4     5
 0.0002417046     1    10     4    11
 -0.0062239115     1    10     5     2
 -0.0047427108     1    10     5     4
 -0.0013386995     1    10     6     8
 -0.0078749359     1    10     6     9
 -0.0078749359     1    10     7     8
 0.0013386995     1    10     7     9
 -0.0015503664     1    10     8     6
 -0.0091200724     1    10     8     7
 -0.0093046810     1    10     8    12
 -0.0045964115     1    10     8    13
 -0.0091200724     1    10     9     6
 0.0015503664     1    10     9     7
 0.0045964115     1    10     9    12
 -0.0093046810     1    10     9    13
 -0.4012963690     1    10    10     1
 0.0005370867     1    10    10     3
 -0.0008714874     1    10    10     5
 0.0001468966     1    10    10    11
 -0.0493585111     1    10    11     2
 0.0043404817     1    10    11     4
 -0.0069075093     1    10    12     8
 0.0034122347     1    10    12     9
 -0.0034122347     1    10    13     8
 -0.0069075093     1    10    13     9
 -0.0111924472     1    11     2     2
 -0.0003836916     1    11     2     4
 -0.0000397748     1    11     2    10
 0.0935763681     1    11     3     1
 -0.0155615049     1    11     3     3
 -0.0004770048     1    11     3     5
 0.0202072407     1    11     4     2
 0.0064333075     1    11     4     4
 -0.0002417046     1    11     4    10
 0.1495492285     1    11     5     1
 -0.0116311395     1    11     5     3
 0.0097816557     1    11     5     5
 -0.0073632148     1    11     6     6
 0.0014268036     1    11     6    12
 -0.0047736053     1    11     6    13
 -0.0073632148     1    11     7     7
 -0.0047736053     1    11     7    12
 -0.0014268036     1    11     7    13
 -0.0011233671     1    11     8     8
 -0.0011233671     1    11     9     9
 -0.0494020941     1    11    10     2
 0.0041276229     1    11    10     4
 -0.0001468966     1    11    10    10
 -0.4837783295     1    11    11     1
 0.0064244809     1    11    11     3
 -0.0036888513     1    11    11     5
 0.0000999696     1    11    12     6
 -0.0003344648     1    11    12     7
 -0.0007763017     1    11    12    12
 -0.0003344648     1    11    13     6
 -0.0000999696     1    11    13     7
 -0.0007763017     1    11    13    13
 0.0004288373     1    12     2     8
 -0.0002118410     1    12     2     9
 -0.0023843374     1    12     3     6
 0.0079771915     1    12     3     7
 -0.0068165311     1    12     4     8
 0.0033672924     1    12     4     9
 0.0012811783     1    12     5     6
 -0.0042863918     1    12     5     7
 0.0612707109     1    12     6     1
 -0.0059037588     1    12     6     3
 0.0033094534     1    12     6     5
 -0.0014268036     1    12     6    11
 -0.2049912051     1    12     7     1
 0.0197519925     1    12     7     3
 -0.0110723188     1    12     7     5
 0.0047736053     1    12     7    11
 -0.1135203718     1    12     8     2
 -0.0169060782     1    12     8     4
 0.0093046810     1    12     8    10
 0.0560778327     1    12     9     2
 0.0083514193     1    12     9     4
 -0.0045964115     1    12     9    10
 0.0023648361     1    12    10     8
 -0.0011682034     1    12    10     9
 -0.0013259099     1    12    11     6
 0.0044360490     1    12    11     7
 -0.5709966933     1    12    12     1
 0.0139569211     1    12    12     3
 -0.0083116307     1    12    12     5
 0.0007763017     1    12    12    11
 0.0002118410     1    13     2     8
 0.0004288373     1    13     2     9
 0.0079771915     1    13     3     6
 0.0023843374     1    13     3     7
 -0.0033672924     1    13     4     8
 -0.0068165311     1    13     4     9
 -0.0042863918     1    13     5     6
 -0.0012811783     1    13     5     7
 -0.2049912051     1    13     6     1
 0.0197519925     1    13     6     3
 -0.0110723188     1    13     6     5
 0.0047736053     1    13     6    11
 -0.0612707109     1    13     7     1
 0.0059037588     1    13     7     3
 -0.0033094534     1    13     7     5
 0.0014268036     1    13     7    11
 -0.0560778327     1    13     8     2
 -0.0083514193     1    13     8     4
 0.0045964115     1    13     8    10
 -0.1135203718     1    13     9     2
 -0.0169060782     1    13     9     4
 0.0093046810     1    13     9    10
 0.0011682034     1    13    10     8
 0.0023648361     1    13    10     9
 0.0044360490     1    13    11     6
 0.0013259099     1    13    11     7
 -0.5709966933     1    13    13     1
 0.0139569211     1    13    13     3
 -0.0083116307     1    13    13     5
 0.0007763017     1    13    13    11
 -0.4837667779     2     1     1     2
 -0.0077478945     2     1     1     4
 -0.0006362558     2     1     1    10
 -0.0103862933     2     1     3     2
 -0.1435592970     2     1     3     4
 0.0919690234     2     1     3    10
 -0.1432141555     2     1     4     3
 0.2340088704     2     1     4     5
 -0.0205767951     2     1     4    11
 -0.0168295785     2     1     5     2
 0.2334679958     2     1     5     4
 0.0061729517     2     1     5    10
 0.0308422896     2     1     6     8
 0.1814306069     2     1     6     9
 0.1814306069     2     1     7     8
 -0.0308422896     2     1     7     9
 0.0309259232     2     1     8     6
 0.1819225834     2     1     8     7
 0.1139399498     2     1     8    12
 0.0562850997     2     1     8    13
 0.1819225834     2     1     9     6
 -0.0309259232     2     1     9     7
 -0.0562850997     2     1     9    12
 0.1139399498     2     1     9    13
 0.0920940716     2     1    10     3
 0.0062239115     2     1    10     5
 0.0493585111     2     1    10    11
 0.0111924472     2     1    11     2
 -0.0202072407     2     1    11     4
 0.0494020941     2     1    11    10
 0.1135203718     2     1    12     8
 -0.0560778327     2     1    12     9
 0.0560778327     2     1    13     8
 0.1135203718     2     1    13     9
 0.4837667779     2     2     1     1
 0.0103862933     2     2     1     3
 0.0168295785     2     2     1     5
 -0.0111924472     2     2     1    11
 0.0103862933     2     2     3     1
 0.8036750745     2     2     3     3
 0.1017824744     2     2     3     5
 -0.0940448707     2     2     3    11
 0.6359536403     2     2     4     4
 -0.1197337168     2     2     4    10
 0.0168295785     2     2     5     1
 0.1017824744     2     2     5     3
 0.6767787869     2     2     5     5
 -0.1503636322     2     2     5    11
 0.6742561060     2     2     6     6
 -0.0614472044     2     2     6    12
 0.2055816934     2     2     6    13
 0.6742561060     2     2     7     7
 0.2055816934     2     2     7    12
 0.0614472044     2     2     7    13
 0.6043581431     2     2     8     8
 0.6043581431     2     2     9     9
 -0.1197337168     2     2    10     4
 0.4012751188     2     2    10    10
 -0.0111924472     2     2    11     1
 -0.0940448707     2     2    11     3
 -0.1503636322     2     2    11     5
 0.4843461383     2     2    11    11
 -0.0614472044     2     2    12     6
 0.2055816934     2     2    12     7
 0.5716159425     2     2    12    12
 0.2055816934     2     2    13     6
 0.0614472044     2     2    13     7
 0.5716159425     2     2    13    13
 -0.0103862933     2     3     1     2
 -0.0003325993     2     3     1     4
 -0.0000755673     2     3     1    10
 -0.8036750745     2     3     3     2
 -0.0128103445     2     3     3     4
 -0.0010897701     2     3     3    10
 0.1432141555     2     3     4     1
 -0.0174222391     2     3     4     5
 0.0051489959     2     3     4    11
 -0.1017824744     2     3     5     2
 -0.0230475220     2     3     5     4
 0.0008983253     2     3     5    10
 -0.0037092786     2     3     6     8
 -0.0218199319     2     3     6     9
 -0.0218199319     2     3     7     8
 0.0037092786     2     3     7     9
 -0.0025322267     2     3     8     6
 -0.0148958926     2     3     8     7
 -0.0148802168     2     3     8    12
 -0.0073506658     2     3     8    13
 -0.0148958926     2     3     9     6
 0.0025322267     2     3     9     7
 0.0073506658     2     3     9    12
 -0.0148802168     2     3     9    13
 -0.0920940716     2     3    10     1
 -0.0011715842     2     3    10     5
 -0.0020825468     2     3    10    11
 0.0940448707     2     3    11     2
 0.0087663613     2     3    11     4
 -0.0036193384     2     3    11    10
 -0.0134170850     2     3    12     8
 0.0066278945     2     3    12     9
 -0.0066278945     2     3    13     8
 -0.0134170850     2     3    13     9
 0.0077478945     2     4     1     1
 0.0003325993     2     4     1     3
 0.0005427406     2     4     1     5
 -0.0003836916     2     4     1    11
 0.1435592970     2     4     3     1
 0.0128103445     2     4     3     3
 0.0056515416     2     4     3     5
 -0.0038993259     2     4     3    11
 -0.6359536403     2     4     4     2
 0.0008814568     2     4     4    10
 -0.2334679958     2     4     5     1
 0.0230475220     2     4     5     3
 0.0206134620     2     4     5     5
 -0.0186140044     2     4     5    11
 0.0193575621     2     4     6     6
 -0.0054308561     2     4     6    12
 0.0181698194     2     4     6    13
 0.0193575621     2     4     7     7
 0.0181698194     2     4     7    12
 0.0054308561     2     4     7    13
 0.0176847889     2     4     8     8
 0.0176847889     2     4     9     9
 0.1197337168     2     4    10     2
 0.0009475269     2     4    10    10
 0.0202072407     2     4    11     1
 -0.0087663613     2     4    11     3
 -0.0076532020     2     4    11     5
 0.0073738112     2     4    11    11
 -0.0037537939     2     4    12     6
 0.0125589328     2     4    12     7
 0.0156501801     2     4    12    12
 0.0125589328     2     4    13     6
 0.0037537939     2     4    13     7
 0.0156501801     2     4    13    13
 -0.0168295785     2     5     1     2
 -0.0005427406     2     5     1     4
 -0.0000507813     2     5     1    10
 -0.1017824744     2     5     3     2
 -0.0056515416     2     5     3     4
 0.0019007482     2     5     3    10
 -0.2340088704     2     5     4     1
 0.0174222391     2     5     4     3
 -0.0107533113     2     5     4    11
 -0.6767787869     2     5     5     2
 -0.0206134620     2     5     5     4
 0.0062464484     2     5     5    10
 0.0000027112     2     5     6     8
 0.0000159488     2     5     6     9
 0.0000159488     2     5     7     8
 -0.0000027112     2     5     7     9
 0.0002943880     2     5     8     6
 0.0017317454     2     5     8     7
 0.0068512379     2     5     8    12
 0.0033844373     2     5     8    13
 0.0017317454     2     5     9     6
 -0.0002943880     2     5     9     7
 -0.0033844373     2     5     9    12
 0.0068512379     2     5     9    13
 -0.0062239115     2     5    10     1
 0.0011715842     2     5    10     3
 -0.0048416165     2     5    10    11
 0.1503636322     2     5    11     2
 0.0076532020     2     5    11     4
 -0.0081969453     2     5    11    10
 0.0014682230     2     5    12     8
 -0.0007252862     2     5    12     9
 0.0007252862     2     5    13     8
 0.0014682230     2     5    13     9
 -0.0000803802     2     6     1     8
 -0.0004728382     2     6     1     9
 -0.0009859775     2     6     3     8
 -0.0058000389     2     6     3     9
 -0.0015408783     2     6     4    12
 0.0051552611     2     6     4    13
 -0.0002368694     2     6     5     8
 -0.0013933902     2     6     5     9
 -0.6742561060     2     6     6     2
 -0.0193575621     2     6     6     4
 0.0080638178     2     6     6    10
 -0.0309259232     2     6     8     1
 0.0025322267     2     6     8     3
 -0.0002943880     2     6     8     5
 -0.0005088044     2     6     8    11
 -0.1819225834     2     6     9     1
 0.0148958926     2     6     9     3
 -0.0017317454     2     6     9     5
 -0.0029930556     2     6     9    11
 0.0005133545     2     6    10    12
 -0.0017175117     2     6    10    13
 -0.0002146838     2     6    11     8
 -0.0012628830     2     6    11     9
 0.0614472044     2     6    12     2
 0.0037537939     2     6    12     4
 -0.0021758021     2     6    12    10
 -0.2055816934     2     6    13     2
 -0.0125589328     2     6    13     4
 0.0072795026     2     6    13    10
 -0.0004728382     2     7     1     8
 0.0000803802     2     7     1     9
 -0.0058000389     2     7     3     8
 0.0009859775     2     7     3     9
 0.0051552611     2     7     4    12
 0.0015408783     2     7     4    13
 -0.0013933902     2     7     5     8
 0.0002368694     2     7     5     9
 -0.6742561060     2     7     7     2
 -0.0193575621     2     7     7     4
 0.0080638178     2     7     7    10
 -0.1819225834     2     7     8     1
 0.0148958926     2     7     8     3
 -0.0017317454     2     7     8     5
 -0.0029930556     2     7     8    11
 0.0309259232     2     7     9     1
 -0.0025322267     2     7     9     3
 0.0002943880     2     7     9     5
 0.0005088044     2     7     9    11
 -0.0017175117     2     7    10    12
 -0.0005133545     2     7    10    13
 -0.0012628830     2     7    11     8
 0.0002146838     2     7    11     9
 -0.2055816934     2     7    12     2
 -0.0125589328     2     7    12     4
 0.0072795026     2     7    12    10
 -0.0614472044     2     7    13     2
 -0.0037537939     2     7    13     4
 0.0021758021     2     7    13    10
 0.0000803802     2     8     1     6
 0.0004728382     2     8     1     7
 0.0004288373     2     8     1    12
 0.0002118410     2     8     1    13
 0.0009859775     2     8     3     6
 0.0058000389     2     8     3     7
 -0.0013714415     2     8     3    12
 -0.0006774772     2     8     3    13
 0.0002368694     2     8     5     6
 0.0013933902     2     8     5     7
 0.0052308697     2     8     5    12
 0.0025839929     2     8     5    13
 -0.0308422896     2     8     6     1
 0.0037092786     2     8     6     3
 -0.0000027112     2     8     6     5
 -0.0003110834     2     8     6    11
 -0.1814306069     2     8     7     1
 0.0218199319     2     8     7     3
 -0.0000159488     2     8     7     5
 -0.0018299570     2     8     7    11
 -0.6043581431     2     8     8     2
 -0.0176847889     2     8     8     4
 0.0088665261     2     8     8    10
 0.0002146838     2     8    11     6
 0.0012628830     2     8    11     7
 -0.0026180151     2     8    11    12
 -0.0012932711     2     8    11    13
 -0.1135203718     2     8    12     1
 0.0134170850     2     8    12     3
 -0.0014682230     2     8    12     5
 -0.0026102058     2     8    12    11
 -0.0560778327     2     8    13     1
 0.0066278945     2     8    13     3
 -0.0007252862     2     8    13     5
 -0.0012894133     2     8    13    11
 0.0004728382     2     9     1     6
 -0.0000803802     2     9     1     7
 -0.0002118410     2     9     1    12
 0.0004288373     2     9     1    13
 0.0058000389     2     9     3     6
 -0.0009859775     2     9     3     7
 0.0006774772     2     9     3    12
 -0.0013714415     2     9     3    13
 0.0013933902     2     9     5     6
 -0.0002368694     2     9     5     7
 -0.0025839929     2     9     5    12
 0.0052308697     2     9     5    13
 -0.1814306069     2     9     6     1
 0.0218199319     2     9     6     3
 -0.0000159488     2     9     6     5
 -0.0018299570     2     9     6    11
 0.0308422896     2     9     7     1
 -0.0037092786     2     9     7     3
 0.0000027112     2     9     7     5
 0.0003110834     2     9     7    11
 -0.6043581431     2     9     9     2
 -0.0176847889     2     9     9     4
 0.0088665261     2     9     9    10
 0.0012628830     2     9    11     6
 -0.0002146838     2     9    11     7
 0.0012932711     2     9    11    12
 -0.0026180151     2     9    11    13
 0.0560778327     2     9    12     1
 -0.0066278945     2     9    12     3
 0.0007252862     2     9    12     5
 0.0012894133     2     9    12    11
 -0.1135203718     2     9    13     1
 0.0134170850     2     9    13     3
 -0.0014682230     2     9    13     5
 -0.0026102058     2     9    13    11
 0.0006362558     2    10     1     1
 0.0000755673     2    10     1     3
 0.0000507813     2    10     1     5
 -0.0000397748     2    10     1    11
 -0.0919690234     2    10     3     1
 0.0010897701     2    10     3     3
 -0.0019007482     2    10     3     5
 0.0015893595     2    10     3    11
 0.1197337168     2    10     4     2
 -0.0008814568     2    10     4     4
 -0.0061729517     2    10     5     1
 -0.0008983253     2    10     5     3
 -0.0062464484     2    10     5     5
 0.0036078241     2    10     5    11
 -0.0080638178     2    10     6     6
 0.0027191257     2    10     6    12
 -0.0090972808     2    10     6    13
 -0.0080638178     2    10     7     7
 -0.0090972808     2    10     7    12
 -0.0027191257     2    10     7    13
 -0.0088665261     2    10     8     8
 -0.0088665261     2    10     9     9
 -0.4012751188     2    10    10     2
 -0.0009475269     2    10    10     4
 -0.0494020941     2    10    11     1
 0.0036193384     2    10    11     3
 0.0081969453     2    10    11     5
 -0.0052634318     2    10    11    11
 0.0021758021     2    10    12     6
 -0.0072795026     2    10    12     7
 -0.0085300920     2    10    12    12
 -0.0072795026     2    10    13     6
 -0.0021758021     2    10    13     7
 -0.0085300920     2    10    13    13
 0.0111924472     2    11     1     2
 0.0003836916     2    11     1     4
 0.0000397748     2    11     1    10
 0.0940448707     2    11     3     2
 0.0038993259     2    11     3     4
 -0.0015893595     2    11     3    10
 0.0205767951     2    11     4     1
 -0.0051489959     2    11     4     3
 0.0107533113     2    11     4     5
 0.1503636322     2    11     5     2
 0.0186140044     2    11     5     4
 -0.0036078241     2    11     5    10
 0.0003110834     2    11     6     8
 0.0018299570     2    11     6     9
 0.0018299570     2    11     7     8
 -0.0003110834     2    11     7     9
 0.0005088044     2    11     8     6
 0.0029930556     2    11     8     7
 0.0000120947     2    11     8    12
 0.0000059746     2    11     8    13
 0.0029930556     2    11     9     6
 -0.0005088044     2    11     9     7
 -0.0000059746     2    11     9    12
 0.0000120947     2    11     9    13
 -0.0493585111     2    11    10     1
 0.0020825468     2    11    10     3
 0.0048416165     2    11    10     5
 -0.4843461383     2    11    11     2
 -0.0073738112     2    11    11     4
 0.0052634318     2    11    11    10
 0.0026102058     2    11    12     8
 -0.0012894133     2    11    12     9
 0.0012894133     2    11    13     8
 0.0026102058     2    11    13     9
 -0.0004288373     2    12     1     8
 0.0002118410     2    12     1     9
 0.0013714415     2    12     3     8
 -0.0006774772     2    12     3     9
 0.0015408783     2    12     4     6