&FCI NORB=  7,NELEC=  6,MS2=0,
 ORBSYM=1,1,1,1,1,1,1
 ISYM=1,
&END
 0.2686776894     1     1     2     2
 -0.0000000096     1     1     2     3
 -0.0000000096     1     1     3     2
 0.2652351665     1     1     3     3
 0.2576824459     1     1     4     4
 0.0000000104     1     1     4     5
 0.0000000104     1     1     5     4
 0.2614660631     1     1     5     5
 0.1892685966     1     1     6     6
 0.1848337661     1     1     7     7
 -0.2686776894     1     2     2     1
 -0.0009614774     1     2     2     6
 0.0000000096     1     2     3     1
 -0.0000000029     1     2     3     6
 -0.0000000057     1     2     4     7
 -0.0043418611     1     2     5     7
 -0.0000000002     1     2     7     4
 -0.0002480250     1     2     7     5
 0.0000000096     1     3     2     1
 -0.0000000026     1     3     2     6
 -0.2652351665     1     3     3     1
 0.0010205439     1     3     3     6
 0.0008185168     1     3     4     7
 0.0000000075     1     3     5     7
 0.0002183641     1     3     7     4
 -0.0000000001     1     3     7     5
 -0.0000000037     1     4     2     7
 0.0002246566     1     4     3     7
 -0.2576824459     1     4     4     1
 0.0002626301     1     4     4     6
 -0.0000000104     1     4     5     1
 0.0000000007     1     4     5     6
 0.0000000002     1     4     7     2
 -0.0002183641     1     4     7     3
 -0.0028078920     1     5     2     7
 0.0000000061     1     5     3     7
 -0.0000000104     1     5     4     1
 0.0000000009     1     5     4     6
 -0.2614660631     1     5     5     1
 -0.0003245509     1     5     5     6
 0.0002480250     1     5     7     2
 0.0000000001     1     5     7     3
 0.0009614774     1     6     2     2
 0.0000000026     1     6     2     3
 0.0000000029     1     6     3     2
 -0.0010205439     1     6     3     3
 -0.0002626301     1     6     4     4
 -0.0000000009     1     6     4     5
 -0.0000000007     1     6     5     4
 0.0003245509     1     6     5     5
 -0.1892685966     1     6     6     1
 0.0008997848     1     6     7     7
 0.0000000037     1     7     2     4
 0.0028078920     1     7     2     5
 -0.0002246566     1     7     3     4
 -0.0000000061     1     7     3     5
 0.0000000057     1     7     4     2
 -0.0008185168     1     7     4     3
 0.0043418611     1     7     5     2
 -0.0000000075     1     7     5     3
 -0.1848337661     1     7     7     1
 -0.0008997848     1     7     7     6
 -0.2686776894     2     1     1     2
 0.0000000096     2     1     1     3
 -0.0000000002     2     1     4     7
 -0.0002480250     2     1     5     7
 -0.0009614774     2     1     6     2
 -0.0000000029     2     1     6     3
 -0.0000000057     2     1     7     4
 -0.0043418611     2     1     7     5
 0.2686776894     2     2     1     1
 0.0009614774     2     2     1     6
 0.2505466726     2     2     3     3
 0.2299807807     2     2     4     4
 -0.0000000003     2     2     4     5
 -0.0000000003     2     2     5     4
 0.2390049052     2     2     5     5
 0.0009614774     2     2     6     1
 0.1877393316     2     2     6     6
 0.1844947045     2     2     7     7
 -0.0000000096     2     3     1     1
 0.0000000026     2     3     1     6
 -0.2505466726     2     3     3     2
 0.0000000002     2     3     4     4
 -0.0279363952     2     3     4     5
 0.0188621425     2     3     5     4
 -0.0000000001     2     3     5     5
 0.0000000029     2     3     6     1
 -0.0000000153     2     3     7     7
 0.0000000037     2     4     1     7
 -0.0455842013     2     4     3     5
 -0.2299807807     2     4     4     2
 -0.0000000002     2     4     4     3
 0.0000000003     2     4     5     2
 -0.0188621425     2     4     5     3
 0.0000000242     2     4     6     7
 0.0000000057     2     4     7     1
 0.0000000240     2     4     7     6
 0.0028078920     2     5     1     7
 0.0455842013     2     5     3     4
 0.0000000003     2     5     4     2
 0.0279363952     2     5     4     3
 -0.2390049052     2     5     5     2
 0.0000000001     2     5     5     3
 -0.0251446099     2     5     6     7
 0.0043418611     2     5     7     1
 -0.0249277958     2     5     7     6
 -0.0009614774     2     6     1     2
 -0.0000000026     2     6     1     3
 0.0000000001     2     6     4     7
 -0.0001117917     2     6     5     7
 -0.1877393316     2     6     6     2
 -0.0000000240     2     6     7     4
 0.0249277958     2     6     7     5
 -0.0000000037     2     7     1     4
 -0.0028078920     2     7     1     5
 0.0000000002     2     7     4     1
 -0.0000000001     2     7     4     6
 0.0002480250     2     7     5     1
 0.0001117917     2     7     5     6
 -0.0000000242     2     7     6     4
 0.0251446099     2     7     6     5
 -0.1844947045     2     7     7     2
 0.0000000153     2     7     7     3
 0.0000000096     3     1     1     2
 -0.2652351665     3     1     1     3
 0.0002183641     3     1     4     7
 -0.0000000001     3     1     5     7
 -0.0000000026     3     1     6     2
 0.0010205439     3     1     6     3
 0.0008185168     3     1     7     4
 0.0000000075     3     1     7     5
 -0.0000000096     3     2     1     1
 0.0000000029     3     2     1     6
 -0.2505466726     3     2     2     3
 0.0000000002     3     2     4     4
 0.0188621425     3     2     4     5
 -0.0279363952     3     2     5     4
 -0.0000000001     3     2     5     5
 0.0000000026     3     2     6     1
 -0.0000000153     3     2     7     7
 0.2652351665     3     3     1     1
 -0.0010205439     3     3     1     6
 0.2505466726     3     3     2     2
 0.2390632921     3     3     4     4
 0.0000000002     3     3     4     5
 0.0000000002     3     3     5     4
 0.2299807716     3     3     5     5
 -0.0010205439     3     3     6     1
 0.1877393129     3     3     6     6
 0.1693172731     3     3     7     7
 -0.0002246566     3     4     1     7
 0.0455842013     3     4     2     5
 -0.0000000002     3     4     4     2
 -0.2390632921     3     4     4     3
 0.0279363952     3     4     5     2
 -0.0000000002     3     4     5     3
 -0.0251795761     3     4     6     7
 -0.0008185168     3     4     7     1
 -0.0249623171     3     4     7     6
 -0.0000000061     3     5     1     7
 -0.0455842013     3     5     2     4
 -0.0188621425     3     5     4     2
 -0.0000000002     3     5     4     3
 0.0000000001     3     5     5     2
 -0.2299807716     3     5     5     3
 -0.0000000242     3     5     6     7
 -0.0000000075     3     5     7     1
 -0.0000000240     3     5     7     6
 -0.0000000029     3     6     1     2
 0.0010205439     3     6     1     3
 -0.0001148476     3     6     4     7
 -0.0000000001     3     6     5     7
 -0.1877393129     3     6     6     3
 0.0249623171     3     6     7     4
 0.0000000240     3     6     7     5
 0.0002246566     3     7     1     4
 0.0000000061     3     7     1     5
 -0.0002183641     3     7     4     1
 0.0001148476     3     7     4     6
 0.0000000001     3     7     5     1
 0.0000000001     3     7     5     6
 0.0251795761     3     7     6     4
 0.0000000242     3     7     6     5
 0.0000000153     3     7     7     2
 -0.1693172731     3     7     7     3
 -0.2576824459     4     1     1     4
 -0.0000000104     4     1     1     5
 0.0000000002     4     1     2     7
 -0.0002183641     4     1     3     7
 0.0002626301     4     1     6     4
 0.0000000007     4     1     6     5
 -0.0000000037     4     1     7     2
 0.0002246566     4     1     7     3
 0.0000000057     4     2     1     7
 -0.2299807807     4     2     2     4
 0.0000000003     4     2     2     5
 -0.0000000002     4     2     3     4
 -0.0188621425     4     2     3     5
 -0.0455842013     4     2     5     3
 0.0000000240     4     2     6     7
 0.0000000037     4     2     7     1
 0.0000000242     4     2     7     6
 -0.0008185168     4     3     1     7
 -0.0000000002     4     3     2     4
 0.0279363952     4     3     2     5
 -0.2390632921     4     3     3     4
 -0.0000000002     4     3     3     5
 0.0455842013     4     3     5     2
 -0.0249623171     4     3     6     7
 -0.0002246566     4     3     7     1
 -0.0251795761     4     3     7     6
 0.2576824459     4     4     1     1
 -0.0002626301     4     4     1     6
 0.2299807807     4     4     2     2
 0.0000000002     4     4     2     3
 0.0000000002     4     4     3     2
 0.2390632921     4     4     3     3
 0.2441609159     4     4     5     5
 -0.0002626301     4     4     6     1
 0.1840705989     4     4     6     6
 0.1696090674     4     4     7     7
 0.0000000104     4     5     1     1
 -0.0000000009     4     5     1     6
 -0.0000000003     4     5     2     2
 -0.0279363952     4     5     2     3
 0.0188621425     4     5     3     2
 0.0000000002     4     5     3     3
 -0.2441609159     4     5     5     4
 -0.0000000007     4     5     6     1
 0.0000000095     4     5     7     7
 0.0002626301     4     6     1     4
 0.0000000009     4     6     1     5
 -0.0000000001     4     6     2     7
 0.0001148476     4     6     3     7
 -0.1840705989     4     6     6     4
 -0.0000000242     4     6     7     2
 0.0251795761     4     6     7     3
 -0.0000000057     4     7     1     2
 0.0008185168     4     7     1     3
 -0.0000000002     4     7     2     1
 0.0000000001     4     7     2     6
 0.0002183641     4     7     3     1
 -0.0001148476     4     7     3     6
 -0.0000000240     4     7     6     2
 0.0249623171     4     7     6     3
 -0.1696090674     4     7     7     4
 -0.0000000095     4     7     7     5
 -0.0000000104     5     1     1     4
 -0.2614660631     5     1     1     5
 0.0002480250     5     1     2     7
 0.0000000001     5     1     3     7
 0.0000000009     5     1     6     4
 -0.0003245509     5     1     6     5
 -0.0028078920     5     1     7     2
 0.0000000061     5     1     7     3
 0.0043418611     5     2     1     7
 0.0000000003     5     2     2     4
 -0.2390049052     5     2     2     5
 0.0279363952     5     2     3     4
 0.0000000001     5     2     3     5
 0.0455842013     5     2     4     3
 -0.0249277958     5     2     6     7
 0.0028078920     5     2     7     1
 -0.0251446099     5     2     7     6
 -0.0000000075     5     3     1     7
 -0.0188621425     5     3     2     4
 0.0000000001     5     3     2     5
 -0.0000000002     5     3     3     4
 -0.2299807716     5     3     3     5
 -0.0455842013     5     3     4     2
 -0.0000000240     5     3     6     7
 -0.0000000061     5     3     7     1
 -0.0000000242     5     3     7     6
 0.0000000104     5     4     1     1
 -0.0000000007     5     4     1     6
 -0.0000000003     5     4     2     2
 0.0188621425     5     4     2     3
 -0.0279363952     5     4     3     2
 0.0000000002     5     4     3     3
 -0.2441609159     5     4     4     5
 -0.0000000009     5     4     6     1
 0.0000000095     5     4     7     7
 0.2614660631     5     5     1     1
 0.0003245509     5     5     1     6
 0.2390049052     5     5     2     2
 -0.0000000001     5     5     2     3
 -0.0000000001     5     5     3     2
 0.2299807716     5     5     3     3
 0.2441609159     5     5     4     4
 0.0003245509     5     5     6     1
 0.1840706075     5     5     6     6
 0.1792781970     5     5     7     7
 0.0000000007     5     6     1     4
 -0.0003245509     5     6     1     5
 0.0001117917     5     6     2     7
 0.0000000001     5     6     3     7
 -0.1840706075     5     6     6     5
 0.0251446099     5     6     7     2
 0.0000000242     5     6     7     3
 -0.0043418611     5     7     1     2
 0.0000000075     5     7     1     3
 -0.0002480250     5     7     2     1
 -0.0001117917     5     7     2     6
 -0.0000000001     5     7     3     1
 -0.0000000001     5     7     3     6
 0.0249277958     5     7     6     2
 0.0000000240     5     7     6     3
 -0.0000000095     5     7     7     4
 -0.1792781970     5     7     7     5
 -0.1892685966     6     1     1     6
 0.0009614774     6     1     2     2
 0.0000000029     6     1     2     3
 0.0000000026     6     1     3     2
 -0.0010205439     6     1     3     3
 -0.0002626301     6     1     4     4
 -0.0000000007     6     1     4     5
 -0.0000000009     6     1     5     4
 0.0003245509     6     1     5     5
 0.0008997848     6     1     7     7
 -0.0009614774     6     2     2     1
 -0.1877393316     6     2     2     6
 -0.0000000026     6     2     3     1
 -0.0000000240     6     2     4     7
 0.0249277958     6     2     5     7
 0.0000000001     6     2     7     4
 -0.0001117917     6     2     7     5
 -0.0000000029     6     3     2     1
 0.0010205439     6     3     3     1
 -0.1877393129     6     3     3     6
 0.0249623171     6     3     4     7
 0.0000000240     6     3     5     7
 -0.0001148476     6     3     7     4
 -0.0000000001     6     3     7     5
 -0.0000000242     6     4     2     7
 0.0251795761     6     4     3     7
 0.0002626301     6     4     4     1
 -0.1840705989     6     4     4     6
 0.0000000009     6     4     5     1
 -0.0000000001     6     4     7     2
 0.0001148476     6     4     7     3
 0.0251446099     6     5     2     7
 0.0000000242     6     5     3     7
 0.0000000007     6     5     4     1
 -0.0003245509     6     5     5     1
 -0.1840706075     6     5     5     6
 0.0001117917     6     5     7     2
 0.0000000001     6     5     7     3
 0.1892685966     6     6     1     1
 0.1877393316     6     6     2     2
 0.1877393129     6     6     3     3
 0.1840705989     6     6     4     4
 0.1840706075     6     6     5     5
 0.1116630608     6     6     7     7
 0.0000000242     6     7     2     4
 -0.0251446099     6     7     2     5
 -0.0251795761     6     7     3     4
 -0.0000000242     6     7     3     5
 0.0000000240     6     7     4     2
 -0.0249623171     6     7     4     3
 -0.0249277958     6     7     5     2
 -0.0000000240     6     7     5     3
 -0.0008997848     6     7     7     1
 -0.1116630608     6     7     7     6
 -0.1848337661     7     1     1     7
 0.0000000057     7     1     2     4
 0.0043418611     7     1     2     5
 -0.0008185168     7     1     3     4
 -0.0000000075     7     1     3     5
 0.0000000037     7     1     4     2
 -0.0002246566     7     1     4     3
 0.0028078920     7     1     5     2
 -0.0000000061     7     1     5     3
 -0.0008997848     7     1     6     7
 0.0000000002     7     2     1     4
 0.0002480250     7     2     1     5
 -0.1844947045     7     2     2     7
 0.0000000153     7     2     3     7
 -0.0000000037     7     2     4     1
 -0.0000000242     7     2     4     6
 -0.0028078920     7     2     5     1
 0.0251446099     7     2     5     6
 -0.0000000001     7     2     6     4
 0.0001117917     7     2     6     5
 -0.0002183641     7     3     1     4
 0.0000000001     7     3     1     5
 0.0000000153     7     3     2     7
 -0.1693172731     7     3     3     7
 0.0002246566     7     3     4     1
 0.0251795761     7     3     4     6
 0.0000000061     7     3     5     1
 0.0000000242     7     3     5     6
 0.0001148476     7     3     6     4
 0.0000000001     7     3     6     5
 -0.0000000002     7     4     1     2
 0.0002183641     7     4     1     3
 -0.0000000057     7     4     2     1
 -0.0000000240     7     4     2     6
 0.0008185168     7     4     3     1
 0.0249623171     7     4     3     6
 -0.1696090674     7     4     4     7
 -0.0000000095     7     4     5     7
 0.0000000001     7     4     6     2
 -0.0001148476     7     4     6     3
 -0.0002480250     7     5     1     2
 -0.0000000001     7     5     1     3
 -0.0043418611     7     5     2     1
 0.0249277958     7     5     2     6
 0.0000000075     7     5     3     1
 0.0000000240     7     5     3     6
 -0.0000000095     7     5     4     7
 -0.1792781970     7     5     5     7
 -0.0001117917     7     5     6     2
 -0.0000000001     7     5     6     3
 -0.0008997848     7     6     1     7
 0.0000000240     7     6     2     4
 -0.0249277958     7     6     2     5
 -0.0249623171     7     6     3     4
 -0.0000000240     7     6     3     5
 0.0000000242     7     6     4     2
 -0.0251795761     7     6     4     3
 -0.0251446099     7     6     5     2
 -0.0000000242     7     6     5     3
 -0.1116630608     7     6     6     7
 0.1848337661     7     7     1     1
 0.0008997848     7     7     1     6
 0.1844947045     7     7     2     2
 -0.0000000153     7     7     2     3
 -0.0000000153     7     7     3     2
 0.1693172731     7     7     3     3
 0.1696090674     7     7     4     4
 0.0000000095     7     7     4     5
 0.0000000095     7     7     5     4
 0.1792781970     7     7     5     5
 0.0008997848     7     7     6     1
 0.1116630608     7     7     6     6
0.0 0 0 0 0
 0.2686776894     1     1     2     2
 -0.0000000096     1     1     2     3
 -0.0000000096     1     1     3     2
 0.2652351665     1     1     3     3
 0.2576824459     1     1     4     4
 0.0000000104     1     1     4     5
 0.0000000104     1     1     5     4
 0.2614660631     1     1     5     5
 0.1892685966     1     1     6     6
 0.1848337661     1     1     7     7
 -0.2686776894     1     2     2     1
 -0.0009614774     1     2     2     6
 0.0000000096     1     2     3     1
 -0.0000000029     1     2     3     6
 -0.0000000057     1     2     4     7
 -0.0043418611     1     2     5     7
 -0.0000000002     1     2     7     4
 -0.0002480250     1     2     7     5
 0.0000000096     1     3     2     1
 -0.0000000026     1     3     2     6
 -0.2652351665     1     3     3     1
 0.0010205439     1     3     3     6
 0.0008185168     1     3     4     7
 0.0000000075     1     3     5     7
 0.0002183641     1     3     7     4
 -0.0000000001     1     3     7     5
 -0.0000000037     1     4     2     7
 0.0002246566     1     4     3     7
 -0.2576824459     1     4     4     1
 0.0002626301     1     4     4     6
 -0.0000000104     1     4     5     1
 0.0000000007     1     4     5     6
 0.0000000002     1     4     7     2
 -0.0002183641     1     4     7     3
 -0.0028078920     1     5     2     7
 0.0000000061     1     5     3     7
 -0.0000000104     1     5     4     1
 0.0000000009     1     5     4     6
 -0.2614660631     1     5     5     1
 -0.0003245509     1     5     5     6
 0.0002480250     1     5     7     2
 0.0000000001     1     5     7     3
 0.0009614774     1     6     2     2
 0.0000000026     1     6     2     3
 0.0000000029     1     6     3     2
 -0.0010205439     1     6     3     3
 -0.0002626301     1     6     4     4
 -0.0000000009     1     6     4     5
 -0.0000000007     1     6     5     4
 0.0003245509     1     6     5     5
 -0.1892685966     1     6     6     1
 0.0008997848     1     6     7     7
 0.0000000037     1     7     2     4
 0.0028078920     1     7     2     5
 -0.0002246566     1     7     3     4
 -0.0000000061     1     7     3     5
 0.0000000057     1     7     4     2
 -0.0008185168     1     7     4     3
 0.0043418611     1     7     5     2
 -0.0000000075     1     7     5     3
 -0.1848337661     1     7     7     1
 -0.0008997848     1     7     7     6
 -0.2686776894     2     1     1     2
 0.0000000096     2     1     1     3
 -0.0000000002     2     1     4     7
 -0.0002480250     2     1     5     7
 -0.0009614774     2     1     6     2
 -0.0000000029     2     1     6     3
 -0.0000000057     2     1     7     4
 -0.0043418611     2     1     7     5
 0.2686776894     2     2     1     1
 0.0009614774     2     2     1     6
 0.2505466726     2     2     3     3
 0.2299807807     2     2     4     4
 -0.0000000003     2     2     4     5
 -0.0000000003     2     2     5     4
 0.2390049052     2     2     5     5
 0.0009614774     2     2     6     1
 0.1877393316     2     2     6     6
 0.1844947045     2     2     7     7
 -0.0000000096     2     3     1     1
 0.0000000026     2     3     1     6
 -0.2505466726     2     3     3     2
 0.0000000002     2     3     4     4
 -0.0279363952     2     3     4     5
 0.0188621425     2     3     5     4
 -0.0000000001     2     3     5     5
 0.0000000029     2     3     6     1
 -0.0000000153     2     3     7     7
 0.0000000037     2     4     1     7
 -0.0455842013     2     4     3     5
 -0.2299807807     2     4     4     2
 -0.0000000002     2     4     4     3
 0.0000000003     2     4     5     2
 -0.0188621425     2     4     5     3
 0.0000000242     2     4     6     7
 0.0000000057     2     4     7     1
 0.0000000240     2     4     7     6
 0.0028078920     2     5     1     7
 0.0455842013     2     5     3     4
 0.0000000003     2     5     4     2
 0.0279363952     2     5     4     3
 -0.2390049052     2     5     5     2
 0.0000000001     2     5     5     3
 -0.0251446099     2     5     6     7
 0.0043418611     2     5     7     1
 -0.0249277958     2     5     7     6
 -0.0009614774     2     6     1     2
 -0.0000000026     2     6     1     3
 0.0000000001     2     6     4     7
 -0.0001117917     2     6     5     7
 -0.1877393316     2     6     6     2
 -0.0000000240     2     6     7     4
 0.0249277958     2     6     7     5
 -0.0000000037     2     7     1     4
 -0.0028078920     2     7     1     5
 0.0000000002     2     7     4     1
 -0.0000000001     2     7     4     6
 0.0002480250     2     7     5     1
 0.0001117917     2     7     5     6
 -0.0000000242     2     7     6     4
 0.0251446099     2     7     6     5
 -0.1844947045     2     7     7     2
 0.0000000153     2     7     7     3
 0.0000000096     3     1     1     2
 -0.2652351665     3     1     1     3
 0.0002183641     3     1     4     7
 -0.0000000001     3     1     5     7
 -0.0000000026     3     1     6     2
 0.0010205439     3     1     6     3
 0.0008185168     3     1     7     4
 0.0000000075     3     1     7     5
 -0.0000000096     3     2     1     1
 0.0000000029     3     2     1     6
 -0.2505466726     3     2     2     3
 0.0000000002     3     2     4     4
 0.0188621425     3     2     4     5
 -0.0279363952     3     2     5     4
 -0.0000000001     3     2     5     5
 0.0000000026     3     2     6     1
 -0.0000000153     3     2     7     7
 0.2652351665     3     3     1     1
 -0.0010205439     3     3     1     6
 0.2505466726     3     3     2     2
 0.2390632921     3     3     4     4
 0.0000000002     3     3     4     5
 0.0000000002     3     3     5     4
 0.2299807716     3     3     5     5
 -0.0010205439     3     3     6     1
 0.1877393129     3     3     6     6
 0.1693172731     3     3     7     7
 -0.0002246566     3     4     1     7
 0.0455842013     3     4     2     5
 -0.0000000002     3     4     4     2
 -0.2390632921     3     4     4     3
 0.0279363952     3     4     5     2
 -0.0000000002     3     4     5     3
 -0.0251795761     3     4     6     7
 -0.0008185168     3     4     7     1
 -0.0249623171     3     4     7     6
 -0.0000000061     3     5     1     7
 -0.0455842013     3     5     2     4
 -0.0188621425     3     5     4     2
 -0.0000000002     3     5     4     3
 0.0000000001     3     5     5     2
 -0.2299807716     3     5     5     3
 -0.0000000242     3     5     6     7
 -0.0000000075     3     5     7     1
 -0.0000000240     3     5     7     6
 -0.0000000029     3     6     1     2
 0.0010205439     3     6     1     3
 -0.0001148476     3     6     4     7
 -0.0000000001     3     6     5     7
 -0.1877393129     3     6     6     3
 0.0249623171     3     6     7     4
 0.0000000240     3     6     7     5
 0.0002246566     3     7     1     4
 0.0000000061     3     7     1     5
 -0.0002183641     3     7     4     1
 0.0001148476     3     7     4     6
 0.0000000001     3     7     5     1
 0.0000000001     3     7     5     6
 0.0251795761     3     7     6     4
 0.0000000242     3     7     6     5
 0.0000000153     3     7     7     2
 -0.1693172731     3     7     7     3
 -0.2576824459     4     1     1     4
 -0.0000000104     4     1     1     5
 0.0000000002     4     1     2     7
 -0.0002183641     4     1     3     7
 0.0002626301     4     1     6     4
 0.0000000007     4     1     6     5
 -0.0000000037     4     1     7     2
 0.0002246566     4     1     7     3
 0.0000000057     4     2     1     7
 -0.2299807807     4     2     2     4
 0.0000000003     4     2     2     5
 -0.0000000002     4     2     3     4
 -0.0188621425     4     2     3     5
 -0.0455842013     4     2     5     3
 0.0000000240     4     2     6     7
 0.0000000037     4     2     7     1
 0.0000000242     4     2     7     6
 -0.0008185168     4     3     1     7
 -0.0000000002     4     3     2     4
 0.0279363952     4     3     2     5
 -0.2390632921     4     3     3     4
 -0.0000000002     4     3     3     5
 0.0455842013     4     3     5     2
 -0.0249623171     4     3     6     7
 -0.0002246566     4     3     7     1
 -0.0251795761     4     3     7     6
 0.2576824459     4     4     1     1
 -0.0002626301     4     4     1     6
 0.2299807807     4     4     2     2
 0.0000000002     4     4     2     3
 0.0000000002     4     4     3     2
 0.2390632921     4     4     3     3
 0.2441609159     4     4     5     5
 -0.0002626301     4     4     6     1
 0.1840705989     4     4     6     6
 0.1696090674     4     4     7     7
 0.0000000104     4     5     1     1
 -0.0000000009     4     5     1     6
 -0.0000000003     4     5     2     2
 -0.0279363952     4     5     2     3
 0.0188621425     4     5     3     2
 0.0000000002     4     5     3     3
 -0.2441609159     4     5     5     4
 -0.0000000007     4     5     6     1
 0.0000000095     4     5     7     7
 0.0002626301     4     6     1     4
 0.0000000009     4     6     1     5
 -0.0000000001     4     6     2     7
 0.0001148476     4     6     3     7
 -0.1840705989     4     6     6     4
 -0.0000000242     4     6     7     2
 0.0251795761     4     6     7     3
 -0.0000000057     4     7     1     2
 0.0008185168     4     7     1     3
 -0.0000000002     4     7     2     1
 0.0000000001     4     7     2     6
 0.0002183641     4     7     3     1
 -0.0001148476     4     7     3     6
 -0.0000000240     4     7     6     2
 0.0249623171     4     7     6     3
 -0.1696090674     4     7     7     4
 -0.0000000095     4     7     7     5
 -0.0000000104     5     1     1     4
 -0.2614660631     5     1     1     5
 0.0002480250     5     1     2     7
 0.0000000001     5     1     3     7
 0.0000000009     5     1     6     4
 -0.0003245509     5     1     6     5
 -0.0028078920     5     1     7     2
 0.0000000061     5     1     7     3
 0.0043418611     5     2     1     7
 0.0000000003     5     2     2     4
 -0.2390049052     5     2     2     5
 0.0279363952     5     2     3     4
 0.0000000001     5     2     3     5
 0.0455842013     5     2     4     3
 -0.0249277958     5     2     6     7
 0.0028078920     5     2     7     1
 -0.0251446099     5     2     7     6
 -0.0000000075     5     3     1     7
 -0.0188621425     5     3     2     4
 0.0000000001     5     3     2     5
 -0.0000000002     5     3     3     4
 -0.2299807716     5     3     3     5
 -0.0455842013     5     3     4     2
 -0.0000000240     5     3     6     7
 -0.0000000061     5     3     7     1
 -0.0000000242     5     3     7     6
 0.0000000104     5     4     1     1
 -0.0000000007     5     4     1     6
 -0.0000000003     5     4     2     2
 0.0188621425     5     4     2     3
 -0.0279363952     5     4     3     2
 0.0000000002     5     4     3     3
 -0.2441609159     5     4     4     5
 -0.0000000009     5     4     6     1
 0.0000000095     5     4     7     7
 0.2614660631     5     5     1     1
 0.0003245509     5     5     1     6
 0.2390049052     5     5     2     2
 -0.0000000001     5     5     2     3
 -0.0000000001     5     5     3     2
 0.2299807716     5     5     3     3
 0.2441609159     5     5     4     4
 0.0003245509     5     5     6     1
 0.1840706075     5     5     6     6
 0.1792781970     5     5     7     7
 0.0000000007     5     6     1     4
 -0.0003245509     5     6     1     5
 0.0001117917     5     6     2     7
 0.0000000001     5     6     3     7
 -0.1840706075     5     6     6     5
 0.0251446099     5     6     7     2
 0.0000000242     5     6     7     3
 -0.0043418611     5     7     1     2
 0.0000000075     5     7     1     3
 -0.0002480250     5     7     2     1
 -0.0001117917     5     7     2     6
 -0.0000000001     5     7     3     1
 -0.0000000001     5     7     3     6
 0.0249277958     5     7     6     2
 0.0000000240     5     7     6     3
 -0.0000000095     5     7     7     4
 -0.1792781970     5     7     7     5
 -0.1892685966     6     1     1     6
 0.0009614774     6     1     2     2
 0.0000000029     6     1     2     3
 0.0000000026     6     1     3     2
 -0.0010205439     6     1     3     3
 -0.0002626301     6     1     4     4
 -0.0000000007     6     1     4     5
 -0.0000000009     6     1     5     4
 0.0003245509     6     1     5     5
 0.0008997848     6     1     7     7
 -0.0009614774     6     2     2     1
 -0.1877393316     6     2     2     6
 -0.0000000026     6     2     3     1
 -0.0000000240     6     2     4     7
 0.0249277958     6     2     5     7
 0.0000000001     6     2     7     4
 -0.0001117917     6     2     7     5
 -0.0000000029     6     3     2     1
 0.0010205439     6     3     3     1
 -0.1877393129     6     3     3     6
 0.0249623171     6     3     4     7
 0.0000000240     6     3     5     7
 -0.0001148476     6     3     7     4
 -0.0000000001     6     3     7     5
 -0.0000000242     6     4     2     7
 0.0251795761     6     4     3     7
 0.0002626301     6     4     4     1
 -0.1840705989     6     4     4     6
 0.0000000009     6     4     5     1
 -0.0000000001     6     4     7     2
 0.0001148476     6     4     7     3