&FCI NORB=  9,NELEC=  6,MS2=0,
 ORBSYM=1,1,1,1,1,1,1,1,1
 ISYM=1,
&END
 0.2696850978     1     1     2     2
 0.0000000075     1     1     2     3
 0.0000000075     1     1     3     2
 0.2666071450     1     1     3     3
 0.2567260201     1     1     4     4
 0.0000000097     1     1     4     5
 0.0000000097     1     1     5     4
 0.2607500748     1     1     5     5
 0.1895662255     1     1     6     6
 0.0000000348     1     1     6     9
 0.1850610250     1     1     7     7
 -0.0000000213     1     1     7     8
 -0.0000000213     1     1     8     7
 0.1752089660     1     1     8     8
 0.0000000348     1     1     9     6
 0.1750143852     1     1     9     9
 -0.2696850978     1     2     2     1
 0.0009169535     1     2     2     6
 0.0000000457     1     2     2     9
 -0.0000000075     1     2     3     1
 -0.0000000021     1     2     3     6
 0.0004081245     1     2     3     9
 0.0000000036     1     2     4     7
 -0.0020388915     1     2     4     8
 0.0038458167     1     2     5     7
 -0.0000000003     1     2     5     8
 0.0000000002     1     2     7     4
 0.0002139530     1     2     7     5
 0.0000883981     1     2     8     4
 -0.0000000004     1     2     8     5
 -0.0009321049     1     2     9     3
 -0.0000000075     1     3     2     1
 -0.0000000021     1     3     2     6
 0.0014431972     1     3     2     9
 -0.2666071450     1     3     3     1
 -0.0009178908     1     3     3     6
 0.0000000503     1     3     3     9
 0.0005749013     1     3     4     7
 -0.0000000093     1     3     4     8
 0.0000000055     1     3     5     7
 -0.0012184736     1     3     5     8
 0.0001948571     1     3     7     4
 -0.0000000002     1     3     7     5
 -0.0000000004     1     3     8     4
 -0.0001046250     1     3     8     5
 0.0009321049     1     3     9     2
 0.0000000025     1     4     2     7
 -0.0020740978     1     4     2     8
 0.0001117415     1     4     3     7
 -0.0000000073     1     4     3     8
 -0.2567260201     1     4     4     1
 -0.0003080141     1     4     4     6
 0.0000000431     1     4     4     9
 -0.0000000097     1     4     5     1
 -0.0000000007     1     4     5     6
 -0.0005575453     1     4     5     9
 -0.0000000002     1     4     7     2
 -0.0001948571     1     4     7     3
 -0.0000883981     1     4     8     2
 0.0000000004     1     4     8     3
 -0.0016552580     1     4     9     5
 0.0029409580     1     5     2     7
 0.0000000006     1     5     2     8
 0.0000000054     1     5     3     7
 -0.0007642910     1     5     3     8
 -0.0000000097     1     5     4     1
 -0.0000000007     1     5     4     6
 0.0009785751     1     5     4     9
 -0.2607500748     1     5     5     1
 0.0003083446     1     5     5     6
 0.0000000421     1     5     5     9
 -0.0002139530     1     5     7     2
 0.0000000002     1     5     7     3
 0.0000000004     1     5     8     2
 0.0001046250     1     5     8     3
 0.0016552580     1     5     9     4
 -0.0009169535     1     6     2     2
 0.0000000021     1     6     2     3
 0.0000000021     1     6     3     2
 0.0009178908     1     6     3     3
 0.0003080141     1     6     4     4
 0.0000000007     1     6     4     5
 0.0000000007     1     6     5     4
 -0.0003083446     1     6     5     5
 -0.1895662255     1     6     6     1
 0.0000000283     1     6     6     9
 -0.0009379865     1     6     7     7
 -0.0000000030     1     6     7     8
 -0.0000000029     1     6     8     7
 0.0009545560     1     6     8     8
 -0.0000000348     1     6     9     1
 0.0012414746     1     6     9     9
 -0.0000000025     1     7     2     4
 -0.0029409580     1     7     2     5
 -0.0001117415     1     7     3     4
 -0.0000000054     1     7     3     5
 -0.0000000036     1     7     4     2
 -0.0005749013     1     7     4     3
 -0.0038458167     1     7     5     2
 -0.0000000055     1     7     5     3
 -0.0000000001     1     7     6     8
 -0.1850610250     1     7     7     1
 0.0009379865     1     7     7     6
 0.0000000214     1     7     7     9
 0.0000000213     1     7     8     1
 0.0000000029     1     7     8     6
 0.0018469603     1     7     8     9
 0.0029415082     1     7     9     8
 0.0020740978     1     8     2     4
 -0.0000000006     1     8     2     5
 0.0000000073     1     8     3     4
 0.0007642910     1     8     3     5
 0.0020388915     1     8     4     2
 0.0000000093     1     8     4     3
 0.0000000003     1     8     5     2
 0.0012184736     1     8     5     3
 0.0000000001     1     8     6     7
 0.0000000213     1     8     7     1
 0.0000000030     1     8     7     6
 -0.0010945033     1     8     7     9
 -0.1752089660     1     8     8     1
 -0.0009545560     1     8     8     6
 0.0000000198     1     8     8     9
 -0.0029415082     1     8     9     7
 -0.0000000457     1     9     2     2
 -0.0014431972     1     9     2     3
 -0.0004081245     1     9     3     2
 -0.0000000503     1     9     3     3
 -0.0000000431     1     9     4     4
 -0.0009785751     1     9     4     5
 0.0005575453     1     9     5     4
 -0.0000000421     1     9     5     5
 -0.0000000348     1     9     6     1
 -0.0000000283     1     9     6     6
 -0.0000000214     1     9     7     7
 0.0010945033     1     9     7     8
 -0.0018469603     1     9     8     7
 -0.0000000198     1     9     8     8
 -0.1750143852     1     9     9     1
 -0.0012414746     1     9     9     6
 -0.2696850978     2     1     1     2
 -0.0000000075     2     1     1     3
 -0.0009321049     2     1     3     9
 0.0000000002     2     1     4     7
 0.0000883981     2     1     4     8
 0.0002139530     2     1     5     7
 -0.0000000004     2     1     5     8
 0.0009169535     2     1     6     2
 -0.0000000021     2     1     6     3
 0.0000000036     2     1     7     4
 0.0038458167     2     1     7     5
 -0.0020388915     2     1     8     4
 -0.0000000003     2     1     8     5
 0.0000000457     2     1     9     2
 0.0004081245     2     1     9     3
 0.2696850978     2     2     1     1
 -0.0009169535     2     2     1     6
 -0.0000000457     2     2     1     9
 0.2505097274     2     2     3     3
 0.2309063381     2     2     4     4
 -0.0000000003     2     2     4     5
 -0.0000000003     2     2     5     4
 0.2407006027     2     2     5     5
 -0.0009169535     2     2     6     1
 0.1878695222     2     2     6     6
 -0.0000000003     2     2     6     9
 0.1843819486     2     2     7     7
 0.0000000040     2     2     7     8
 0.0000000040     2     2     8     7
 0.1694534379     2     2     8     8
 -0.0000000457     2     2     9     1
 -0.0000000003     2     2     9     6
 0.1682639892     2     2     9     9
 0.0000000075     2     3     1     1
 0.0000000021     2     3     1     6
 -0.0014431972     2     3     1     9
 -0.2505097274     2     3     3     2
 -0.0000000004     2     3     4     4
 0.0273577466     2     3     4     5
 -0.0175474342     2     3     5     4
 0.0000000002     2     3     5     5
 0.0000000021     2     3     6     1
 0.0087726381     2     3     6     9
 0.0000000039     2     3     7     7
 -0.0076172384     2     3     7     8
 -0.0073135564     2     3     8     7
 -0.0000000040     2     3     8     8
 -0.0004081245     2     3     9     1
 0.0087700107     2     3     9     6
 -0.0000000002     2     3     9     9
 -0.0000000025     2     4     1     7
 0.0020740978     2     4     1     8
 0.0447497388     2     4     3     5
 -0.2309063381     2     4     4     2
 0.0000000004     2     4     4     3
 0.0000000003     2     4     5     2
 0.0175474342     2     4     5     3
 0.0000000061     2     4     6     7
 -0.0247009170     2     4     6     8
 -0.0000000036     2     4     7     1
 0.0000000060     2     4     7     6
 0.0160770557     2     4     7     9
 0.0020388915     2     4     8     1
 -0.0244757998     2     4     8     6
 0.0000000043     2     4     8     9
 0.0161477401     2     4     9     7
 0.0000000044     2     4     9     8
 -0.0029409580     2     5     1     7
 -0.0000000006     2     5     1     8
 -0.0447497388     2     5     3     4
 0.0000000003     2     5     4     2
 -0.0273577466     2     5     4     3
 -0.2407006027     2     5     5     2
 -0.0000000002     2     5     5     3
 -0.0246799459     2     5     6     7
 -0.0000000060     2     5     6     8
 -0.0038458167     2     5     7     1
 -0.0244640532     2     5     7     6
 -0.0000000026     2     5     7     9
 0.0000000003     2     5     8     1
 -0.0000000060     2     5     8     6
 0.0101457497     2     5     8     9
 -0.0000000027     2     5     9     7
 0.0101816980     2     5     9     8
 0.0009169535     2     6     1     2
 -0.0000000021     2     6     1     3
 0.0000041633     2     6     3     9
 -0.0001055866     2     6     4     8
 -0.0001005451     2     6     5     7
 -0.1878695222     2     6     6     2
 -0.0000000060     2     6     7     4
 0.0244640532     2     6     7     5
 0.0244757998     2     6     8     4
 0.0000000060     2     6     8     5
 0.0000000003     2     6     9     2
 -0.0087700107     2     6     9     3
 0.0000000025     2     7     1     4
 0.0029409580     2     7     1     5
 -0.0002778128     2     7     3     8
 -0.0000000002     2     7     4     1
 -0.0000308385     2     7     4     9
 -0.0002139530     2     7     5     1
 0.0001005451     2     7     5     6
 -0.0000000001     2     7     5     9
 -0.0000000061     2     7     6     4
 0.0246799459     2     7     6     5
 -0.1843819486     2     7     7     2
 -0.0000000039     2     7     7     3
 -0.0000000040     2     7     8     2
 0.0073135564     2     7     8     3
 -0.0161477401     2     7     9     4
 0.0000000027     2     7     9     5
 -0.0020740978     2     8     1     4
 0.0000000006     2     8     1     5
 0.0002778128     2     8     3     7
 -0.0000883981     2     8     4     1
 0.0001055866     2     8     4     6
 0.0000000004     2     8     5     1
 -0.0000053421     2     8     5     9
 0.0247009170     2     8     6     4
 0.0000000060     2     8     6     5
 -0.0000000040     2     8     7     2
 0.0076172384     2     8     7     3
 -0.1694534379     2     8     8     2
 0.0000000040     2     8     8     3
 -0.0000000044     2     8     9     4
 -0.0101816980     2     8     9     5
 0.0000000457     2     9     1     2
 0.0014431972     2     9     1     3
 0.0009321049     2     9     3     1
 -0.0000041633     2     9     3     6
 0.0000308385     2     9     4     7
 0.0000000001     2     9     5     7
 0.0000053421     2     9     5     8
 0.0000000003     2     9     6     2
 -0.0087726381     2     9     6     3
 -0.0160770557     2     9     7     4
 0.0000000026     2     9     7     5
 -0.0000000043     2     9     8     4
 -0.0101457497     2     9     8     5
 -0.1682639892     2     9     9     2
 0.0000000002     2     9     9     3
 -0.0000000075     3     1     1     2
 -0.2666071450     3     1     1     3
 0.0009321049     3     1     2     9
 0.0001948571     3     1     4     7
 -0.0000000004     3     1     4     8
 -0.0000000002     3     1     5     7
 -0.0001046250     3     1     5     8
 -0.0000000021     3     1     6     2
 -0.0009178908     3     1     6     3
 0.0005749013     3     1     7     4
 0.0000000055     3     1     7     5
 -0.0000000093     3     1     8     4
 -0.0012184736     3     1     8     5
 0.0014431972     3     1     9     2
 0.0000000503     3     1     9     3
 0.0000000075     3     2     1     1
 0.0000000021     3     2     1     6
 -0.0004081245     3     2     1     9
 -0.2505097274     3     2     2     3
 -0.0000000004     3     2     4     4
 -0.0175474342     3     2     4     5
 0.0273577466     3     2     5     4
 0.0000000002     3     2     5     5
 0.0000000021     3     2     6     1
 0.0087700107     3     2     6     9
 0.0000000039     3     2     7     7
 -0.0073135564     3     2     7     8
 -0.0076172384     3     2     8     7
 -0.0000000040     3     2     8     8
 -0.0014431972     3     2     9     1
 0.0087726381     3     2     9     6
 -0.0000000002     3     2     9     9
 0.2666071450     3     3     1     1
 0.0009178908     3     3     1     6
 -0.0000000503     3     3     1     9
 0.2505097274     3     3     2     2
 0.2407519881     3     3     4     4
 0.0000000003     3     3     4     5
 0.0000000003     3     3     5     4
 0.2309252072     3     3     5     5
 0.0009178908     3     3     6     1
 0.1878689039     3     3     6     6
 0.0000000003     3     3     6     9
 0.1694589625     3     3     7     7
 -0.0000000039     3     3     7     8
 -0.0000000039     3     3     8     7
 0.1843936656     3     3     8     8
 -0.0000000503     3     3     9     1
 0.0000000003     3     3     9     6
 0.1780217188     3     3     9     9
 -0.0001117415     3     4     1     7
 0.0000000073     3     4     1     8
 -0.0447497388     3     4     2     5
 0.0000000004     3     4     4     2
 -0.2407519881     3     4     4     3
 -0.0273577466     3     4     5     2
 -0.0000000003     3     4     5     3
 0.0247165883     3     4     6     7
 0.0000000062     3     4     6     8
 -0.0005749013     3     4     7     1
 0.0244990092     3     4     7     6
 0.0000000053     3     4     7     9
 0.0000000093     3     4     8     1
 0.0000000062     3     4     8     6
 -0.0213306530     3     4     8     9
 0.0000000053     3     4     9     7
 -0.0213710742     3     4     9     8
 -0.0000000054     3     5     1     7
 0.0007642910     3     5     1     8
 0.0447497388     3     5     2     4
 0.0175474342     3     5     4     2
 -0.0000000003     3     5     4     3
 -0.0000000002     3     5     5     2
 -0.2309252072     3     5     5     3
 0.0000000061     3     5     6     7
 -0.0247072760     3     5     6     8
 -0.0000000055     3     5     7     1
 0.0000000060     3     5     7     6
 0.0153873738     3     5     7     9
 0.0012184736     3     5     8     1
 -0.0244873397     3     5     8     6
 0.0000000037     3     5     8     9
 0.0153933145     3     5     9     7
 0.0000000037     3     5     9     8
 -0.0000000021     3     6     1     2
 -0.0009178908     3     6     1     3
 -0.0000041633     3     6     2     9
 0.0001033345     3     6     4     7
 -0.0001053553     3     6     5     8
 -0.1878689039     3     6     6     3
 -0.0244990092     3     6     7     4
 -0.0000000060     3     6     7     5
 -0.0000000062     3     6     8     4
 0.0244873397     3     6     8     5
 -0.0087726381     3     6     9     2
 -0.0000000003     3     6     9     3
 0.0001117415     3     7     1     4
 0.0000000054     3     7     1     5
 0.0002778128     3     7     2     8
 -0.0001948571     3     7     4     1
 -0.0001033345     3     7     4     6
 0.0000000002     3     7     5     1
 0.0000308737     3     7     5     9
 -0.0247165883     3     7     6     4
 -0.0000000061     3     7     6     5
 -0.0000000039     3     7     7     2
 -0.1694589625     3     7     7     3
 0.0076172384     3     7     8     2
 0.0000000039     3     7     8     3
 -0.0000000053     3     7     9     4
 -0.0153933145     3     7     9     5
 -0.0000000073     3     8     1     4
 -0.0007642910     3     8     1     5
 -0.0002778128     3     8     2     7
 0.0000000004     3     8     4     1
 -0.0000045595     3     8     4     9
 0.0001046250     3     8     5     1
 0.0001053553     3     8     5     6
 -0.0000000062     3     8     6     4
 0.0247072760     3     8     6     5
 0.0073135564     3     8     7     2
 0.0000000039     3     8     7     3
 0.0000000040     3     8     8     2
 -0.1843936656     3     8     8     3
 0.0213710742     3     8     9     4
 -0.0000000037     3     8     9     5
 0.0004081245     3     9     1     2
 0.0000000503     3     9     1     3
 -0.0009321049     3     9     2     1
 0.0000041633     3     9     2     6
 0.0000045595     3     9     4     8
 -0.0000308737     3     9     5     7
 -0.0087700107     3     9     6     2
 -0.0000000003     3     9     6     3
 -0.0000000053     3     9     7     4
 -0.0153873738     3     9     7     5
 0.0213306530     3     9     8     4
 -0.0000000037     3     9     8     5
 0.0000000002     3     9     9     2
 -0.1780217188     3     9     9     3
 -0.2567260201     4     1     1     4
 -0.0000000097     4     1     1     5
 -0.0000000002     4     1     2     7
 -0.0000883981     4     1     2     8
 -0.0001948571     4     1     3     7
 0.0000000004     4     1     3     8
 -0.0016552580     4     1     5     9
 -0.0003080141     4     1     6     4
 -0.0000000007     4     1     6     5
 0.0000000025     4     1     7     2
 0.0001117415     4     1     7     3
 -0.0020740978     4     1     8     2
 -0.0000000073     4     1     8     3
 0.0000000431     4     1     9     4
 -0.0005575453     4     1     9     5
 -0.0000000036     4     2     1     7
 0.0020388915     4     2     1     8
 -0.2309063381     4     2     2     4
 0.0000000003     4     2     2     5
 0.0000000004     4     2     3     4
 0.0175474342     4     2     3     5
 0.0447497388     4     2     5     3
 0.0000000060     4     2     6     7
 -0.0244757998     4     2     6     8
 -0.0000000025     4     2     7     1
 0.0000000061     4     2     7     6
 0.0161477401     4     2     7     9
 0.0020740978     4     2     8     1
 -0.0247009170     4     2     8     6
 0.0000000044     4     2     8     9
 0.0160770557     4     2     9     7
 0.0000000043     4     2     9     8
 -0.0005749013     4     3     1     7
 0.0000000093     4     3     1     8
 0.0000000004     4     3     2     4
 -0.0273577466     4     3     2     5
 -0.2407519881     4     3     3     4
 -0.0000000003     4     3     3     5
 -0.0447497388     4     3     5     2
 0.0244990092     4     3     6     7
 0.0000000062     4     3     6     8
 -0.0001117415     4     3     7     1
 0.0247165883     4     3     7     6
 0.0000000053     4     3     7     9
 0.0000000073     4     3     8     1
 0.0000000062     4     3     8     6
 -0.0213710742     4     3     8     9
 0.0000000053     4     3     9     7
 -0.0213306530     4     3     9     8
 0.2567260201     4     4     1     1
 0.0003080141     4     4     1     6
 -0.0000000431     4     4     1     9
 0.2309063381     4     4     2     2
 -0.0000000004     4     4     2     3
 -0.0000000004     4     4     3     2
 0.2407519881     4     4     3     3
 0.2438371475     4     4     5     5
 0.0003080141     4     4     6     1
 0.1843823114     4     4     6     6
 -0.0000000002     4     4     6     9
 0.1699453333     4     4     7     7
 -0.0000000022     4     4     7     8
 -0.0000000022     4     4     8     7
 0.1795436336     4     4     8     8
 -0.0000000431     4     4     9     1
 -0.0000000002     4     4     9     6
 0.1748063518     4     4     9     9
 0.0000000097     4     5     1     1
 0.0000000007     4     5     1     6
 -0.0009785751     4     5     1     9
 -0.0000000003     4     5     2     2
 0.0273577466     4     5     2     3
 -0.0175474342     4     5     3     2
 0.0000000003     4     5     3     3
 -0.2438371475     4     5     5     4
 0.0000000007     4     5     6     1
 0.0058761464     4     5     6     9
 0.0000000022     4     5     7     7
 -0.0048875063     4     5     7     8
 -0.0047166279     4     5     8     7
 -0.0000000023     4     5     8     8
 0.0005575453     4     5     9     1
 0.0058762898     4     5     9     6
 0.0000000001     4     5     9     9
 -0.0003080141     4     6     1     4
 -0.0000000007     4     6     1     5
 0.0001055866     4     6     2     8
 -0.0001033345     4     6     3     7
 -0.0000000960     4     6     5     9
 -0.1843823114     4     6     6     4
 -0.0000000061     4     6     7     2
 -0.0247165883     4     6     7     3
 0.0247009170     4     6     8     2
 -0.0000000062     4     6     8     3
 0.0000000002     4     6     9     4
 -0.0058762898     4     6     9     5
 0.0000000036     4     7     1     2
 0.0005749013     4     7     1     3
 0.0000000002     4     7     2     1
 0.0000308385     4     7     2     9
 0.0001948571     4     7     3     1
 0.0001033345     4     7     3     6
 -0.0002089830     4     7     5     8
 -0.0000000060     4     7     6     2
 -0.0244990092     4     7     6     3
 -0.1699453333     4     7     7     4
 -0.0000000022     4     7     7     5
 0.0000000022     4     7     8     4
 0.0047166279     4     7     8     5
 -0.0160770557     4     7     9     2
 -0.0000000053     4     7     9     3
 -0.0020388915     4     8     1     2
 -0.0000000093     4     8     1     3
 0.0000883981     4     8     2     1
 -0.0001055866     4     8     2     6
 -0.0000000004     4     8     3     1
 0.0000045595     4     8     3     9
 0.0002089830     4     8     5     7
 0.0244757998     4     8     6     2
 -0.0000000062     4     8     6     3
 0.0000000022     4     8     7     4
 0.0048875063     4     8     7     5
 -0.1795436336     4     8     8     4
 0.0000000023     4     8     8     5
 -0.0000000043     4     8     9     2
 0.0213306530     4     8     9     3
 0.0000000431     4     9     1     4
 0.0009785751     4     9     1     5
 -0.0000308385     4     9     2     7
 -0.0000045595     4     9     3     8
 0.0016552580     4     9     5     1
 0.0000000960     4     9     5     6
 0.0000000002     4     9     6     4
 -0.0058761464     4     9     6     5
 -0.0161477401     4     9     7     2
 -0.0000000053     4     9     7     3
 -0.0000000044     4     9     8     2
 0.0213710742     4     9     8     3
 -0.1748063518     4     9     9     4
 -0.0000000001     4     9     9     5
 -0.0000000097     5     1     1     4
 -0.2607500748     5     1     1     5
 -0.0002139530     5     1     2     7
 0.0000000004     5     1     2     8
 0.0000000002     5     1     3     7
 0.0001046250     5     1     3     8
 0.0016552580     5     1     4     9
 -0.0000000007     5     1     6     4
 0.0003083446     5     1     6     5
 0.0029409580     5     1     7     2
 0.0000000054     5     1     7     3
 0.0000000006     5     1     8     2
 -0.0007642910     5     1     8     3
 0.0009785751     5     1     9     4
 0.0000000421     5     1     9     5
 -0.0038458167     5     2     1     7
 0.0000000003     5     2     1     8
 0.0000000003     5     2     2     4
 -0.2407006027     5     2     2     5
 -0.0273577466     5     2     3     4
 -0.0000000002     5     2     3     5
 -0.0447497388     5     2     4     3
 -0.0244640532     5     2     6     7
 -0.0000000060     5     2     6     8
 -0.0029409580     5     2     7     1
 -0.0246799459     5     2     7     6
 -0.0000000027     5     2     7     9
 -0.0000000006     5     2     8     1
 -0.0000000060     5     2     8     6
 0.0101816980     5     2     8     9
 -0.0000000026     5     2     9     7
 0.0101457497     5     2     9     8
 -0.0000000055     5     3     1     7
 0.0012184736     5     3     1     8
 0.0175474342     5     3     2     4
 -0.0000000002     5     3     2     5
 -0.0000000003     5     3     3     4
 -0.2309252072     5     3     3     5
 0.0447497388     5     3     4     2
 0.0000000060     5     3     6     7
 -0.0244873397     5     3     6     8
 -0.0000000054     5     3     7     1
 0.0000000061     5     3     7     6
 0.0153933145     5     3     7     9
 0.0007642910     5     3     8     1
 -0.0247072760     5     3     8     6
 0.0000000037     5     3     8     9
 0.0153873738     5     3     9     7
 0.0000000037     5     3     9     8
 0.0000000097     5     4     1     1
 0.0000000007     5     4     1     6
 0.0005575453     5     4     1     9
 -0.0000000003     5     4     2     2
 -0.0175474342     5     4     2     3
 0.0273577466     5     4     3     2
 0.0000000003     5     4     3     3
 -0.2438371475     5     4     4     5
 0.0000000007     5     4     6     1
 0.0058762898     5     4     6     9
 0.0000000022     5     4     7     7
 -0.0047166279     5     4     7     8
 -0.0048875063     5     4     8     7
 -0.0000000023     5     4     8     8
 -0.0009785751     5     4     9     1
 0.0058761464     5     4     9     6
 0.0000000001     5     4     9     9
 0.2607500748     5     5     1     1
 -0.0003083446     5     5     1     6
 -0.0000000421     5     5     1     9
 0.2407006027     5     5     2     2
 0.0000000002     5     5     2     3
 0.0000000002     5     5     3     2
 0.2309252072     5     5     3     3
 0.2438371475     5     5     4     4
 -0.0003083446     5     5     6     1
 0.1843808256     5     5     6     6
 0.0000000002     5     5     6     9
 0.1795459673     5     5     7     7
 0.0000000022     5     5     7     8
 0.0000000022     5     5     8     7
 0.1699430174     5     5     8     8
 -0.0000000421     5     5     9     1
 0.0000000002     5     5     9     6
 0.1678838350     5     5     9     9
 -0.0000000007     5     6     1     4
 0.0003083446     5     6     1     5
 0.0001005451     5     6     2     7
 0.0001053553     5     6     3     8
 0.0000000960     5     6     4     9
 -0.1843808256     5     6     6     5
 0.0246799459     5     6     7     2
 -0.0000000061     5     6     7     3
 0.0000000060     5     6     8     2
 0.0247072760     5     6     8     3
 -0.0058761464     5     6     9     4
 -0.0000000002     5     6     9     5
 0.0038458167     5     7     1     2
 0.0000000055     5     7     1     3
 0.0002139530     5     7     2     1
 -0.0001005451     5     7     2     6
 0.0000000001     5     7     2     9
 -0.0000000002     5     7     3     1
 -0.0000308737     5     7     3     9
 0.0002089830     5     7     4     8
 0.0244640532     5     7     6     2
 -0.0000000060     5     7     6     3
 -0.0000000022     5     7     7     4
 -0.1795459673     5     7     7     5
 0.0048875063     5     7     8     4
 -0.0000000022     5     7     8     5
 0.0000000026     5     7     9     2
 -0.0153873738     5     7     9     3
 -0.0000000003     5     8     1     2
 -0.0012184736     5     8     1     3
 -0.0000000004     5     8     2     1
 0.0000053421     5     8     2     9
 -0.0001046250     5     8     3     1
 -0.0001053553     5     8     3     6
 -0.0002089830     5     8     4     7
 0.0000000060     5     8     6     2
 0.0244873397     5     8     6     3
 0.0047166279     5     8     7     4
 -0.0000000022     5     8     7     5
 0.0000000023     5     8     8     4
 -0.1699430174     5     8     8     5
 -0.0101457497     5     8     9     2
 -0.0000000037     5     8     9     3
 -0.0005575453     5     9     1     4
 0.0000000421     5     9     1     5
 -0.0000000001     5     9     2     7
 -0.0000053421     5     9     2     8
 0.0000308737     5     9     3     7
 -0.0016552580     5     9     4     1
 -0.0000000960     5     9     4     6
 -0.0058762898     5     9     6     4
 -0.0000000002     5     9     6     5
 0.0000000027     5     9     7     2
 -0.0153933145     5     9     7     3
 -0.0101816980     5     9     8     2
 -0.0000000037     5     9     8     3
 -0.0000000001     5     9     9     4
 -0.1678838350     5     9     9     5
 -0.1895662255     6     1     1     6
 -0.0000000348     6     1     1     9
 -0.0009169535     6     1     2     2
 0.0000000021     6     1     2     3
 0.0000000021     6     1     3     2
 0.0009178908     6     1     3     3
 0.0003080141     6     1     4     4
 0.0000000007     6     1     4     5
 0.0000000007     6     1     5     4
 -0.0003083446     6     1     5     5
 -0.0009379865     6     1     7     7
 -0.0000000029     6     1     7     8
 -0.0000000030     6     1     8     7
 0.0009545560     6     1     8     8
 0.0000000283     6     1     9     6
 0.0012414746     6     1     9     9
 0.0009169535     6     2     2     1
 -0.1878695222     6     2     2     6
 0.0000000003     6     2     2     9
 -0.0000000021     6     2     3     1
 -0.0087700107     6     2     3     9
 -0.0000000060     6     2     4     7
 0.0244757998     6     2     4     8
 0.0244640532     6     2     5     7
 0.0000000060     6     2     5     8
 -0.0001005451     6     2     7     5
 -0.0001055866     6     2     8     4
 0.0000041633     6     2     9     3
 -0.0000000021     6     3     2     1
 -0.0087726381     6     3     2     9
 -0.0009178908     6     3     3     1
 -0.1878689039     6     3     3     6
 -0.0000000003     6     3     3     9
 -0.0244990092     6     3     4     7
 -0.0000000062     6     3     4     8
 -0.0000000060     6     3     5     7
 0.0244873397     6     3     5     8
 0.0001033345     6     3     7     4
 -0.0001053553     6     3     8     5
 -0.0000041633     6     3     9     2
 -0.0000000061     6     4     2     7
 0.0247009170     6     4     2     8
 -0.0247165883     6     4     3     7
 -0.0000000062     6     4     3     8
 -0.0003080141     6     4     4     1
 -0.1843823114     6     4     4     6
 0.0000000002     6     4     4     9
 -0.0000000007     6     4     5     1
 -0.0058762898     6     4     5     9
 -0.0001033345     6     4     7     3
 0.0001055866     6     4     8     2
 -0.0000000960     6     4     9     5
 0.0246799459     6     5     2     7
 0.0000000060     6     5     2     8
 -0.0000000061     6     5     3     7
 0.0247072760     6     5     3     8
 -0.0000000007     6     5     4     1
 -0.0058761464     6     5     4     9
 0.0003083446     6     5     5     1
 -0.1843808256     6     5     5     6
 -0.0000000002     6     5     5     9
 0.0001005451     6     5     7     2
 0.0001053553     6     5     8     3
 0.0000000960     6     5     9     4
 0.1895662255     6     6     1     1
 -0.0000000283     6     6     1     9
 0.1878695222     6     6     2     2
 0.1878689039     6     6     3     3
 0.1843823114     6     6     4     4
 0.1843808256     6     6     5     5
 0.1119060819     6     6     7     7
 0.1119012843     6     6     8     8
 -0.0000000283     6     6     9     1