&FCI NORB=  9,NELEC= 12,MS2=0,
 ORBSYM=1,1,1,1,1,1,1,1,1
 ISYM=1,
&END
 0.2698120121     1     1     2     2
 -0.0000000004     1     1     2     7
 -0.0147379028     1     1     2     8
 0.2254884260     1     1     3     3
 0.0000000104     1     1     3     4
 0.0000000039     1     1     3     9
 0.0000000104     1     1     4     3
 0.2301199130     1     1     4     4
 0.0016819681     1     1     4     9
 0.2532088376     1     1     5     5
 0.0000000014     1     1     5     6
 0.0000000014     1     1     6     5
 0.2802017459     1     1     6     6
 -0.0000000004     1     1     7     2
 0.2679277526     1     1     7     7
 0.0000000012     1     1     7     8
 -0.0147379028     1     1     8     2
 0.0000000012     1     1     8     7
 0.2481388623     1     1     8     8
 0.0000000039     1     1     9     3
 0.0016819681     1     1     9     4
 0.1879758590     1     1     9     9
 -0.2698120121     1     2     2     1
 -0.0004766429     1     2     3     5
 -0.0000000011     1     2     3     6
 0.0000000011     1     2     4     5
 -0.0004766427     1     2     4     6
 0.0426788169     1     2     5     3
 -0.0000000976     1     2     5     4
 -0.0000000001     1     2     5     9
 0.0000000976     1     2     6     3
 0.0426786806     1     2     6     4
 -0.0018304895     1     2     6     9
 0.0000000004     1     2     7     1
 0.0147379028     1     2     8     1
 -0.0000000001     1     2     9     5
 -0.0006709495     1     2     9     6
 -0.0431407707     1     3     2     5
 -0.0000000986     1     3     2     6
 -0.2254884260     1     3     3     1
 -0.0000000104     1     3     4     1
 -0.0426788169     1     3     5     2
 0.0000000628     1     3     5     7
 -0.0173853938     1     3     5     8
 -0.0000000976     1     3     6     2
 0.0359089168     1     3     6     7
 0.0000000634     1     3     6     8
 0.0000000618     1     3     7     5
 0.0347992602     1     3     7     6
 -0.0169261229     1     3     8     5
 0.0000000607     1     3     8     6
 -0.0000000039     1     3     9     1
 0.0000000986     1     4     2     5
 -0.0431406350     1     4     2     6
 -0.0000000104     1     4     3     1
 -0.2301199130     1     4     4     1
 0.0000000976     1     4     5     2
 0.0265645598     1     4     5     7
 0.0000000422     1     4     5     8
 -0.0426786806     1     4     6     2
 -0.0000000839     1     4     6     7
 0.0267359433     1     4     6     8
 0.0261500051     1     4     7     5
 -0.0000000813     1     4     7     6
 0.0000000411     1     4     8     5
 0.0255750599     1     4     8     6
 -0.0016819681     1     4     9     1
 0.0431407707     1     5     2     3
 -0.0000000986     1     5     2     4
 0.0004766429     1     5     3     2
 0.0000000003     1     5     3     7
 -0.0002524328     1     5     3     8
 -0.0000000011     1     5     4     2
 0.0001055074     1     5     4     7
 0.0000000006     1     5     4     8
 -0.2532088376     1     5     5     1
 -0.0000000014     1     5     6     1
 -0.0000000618     1     5     7     3
 -0.0261500051     1     5     7     4
 0.0006359516     1     5     7     9
 0.0169261229     1     5     8     3
 -0.0000000411     1     5     8     4
 0.0000000001     1     5     9     2
 0.0002750709     1     5     9     7
 0.0000000986     1     6     2     3
 0.0431406350     1     6     2     4
 -0.0012415433     1     6     2     9
 0.0000000011     1     6     3     2
 0.0006238947     1     6     3     7
 0.0000000018     1     6     3     8
 0.0004766427     1     6     4     2
 -0.0000000014     1     6     4     7
 0.0007780965     1     6     4     8
 -0.0000000014     1     6     5     1
 -0.2802017459     1     6     6     1
 -0.0347992602     1     6     7     3
 0.0000000813     1     6     7     4
 -0.0000000607     1     6     8     3
 -0.0255750599     1     6     8     4
 0.0006359537     1     6     8     9
 0.0006709495     1     6     9     2
 0.0002744517     1     6     9     8
 0.0000000004     1     7     2     1
 -0.0000000003     1     7     3     5
 -0.0006238947     1     7     3     6
 -0.0001055074     1     7     4     5
 0.0000000014     1     7     4     6
 -0.0000000628     1     7     5     3
 -0.0265645598     1     7     5     4
 -0.0003009919     1     7     5     9
 -0.0359089168     1     7     6     3
 0.0000000839     1     7     6     4
 -0.2679277526     1     7     7     1
 -0.0000000012     1     7     8     1
 -0.0002750709     1     7     9     5
 0.0147379028     1     8     2     1
 0.0002524328     1     8     3     5
 -0.0000000018     1     8     3     6
 -0.0000000006     1     8     4     5
 -0.0007780965     1     8     4     6
 0.0173853938     1     8     5     3
 -0.0000000422     1     8     5     4
 -0.0000000634     1     8     6     3
 -0.0267359433     1     8     6     4
 -0.0003045652     1     8     6     9
 -0.0000000012     1     8     7     1
 -0.2481388623     1     8     8     1
 -0.0002744517     1     8     9     6
 0.0012415433     1     9     2     6
 -0.0000000039     1     9     3     1
 -0.0016819681     1     9     4     1
 0.0000000001     1     9     5     2
 0.0003009919     1     9     5     7
 0.0018304895     1     9     6     2
 0.0003045652     1     9     6     8
 -0.0006359516     1     9     7     5
 -0.0006359537     1     9     8     6
 -0.1879758590     1     9     9     1
 -0.2698120121     2     1     1     2
 0.0000000004     2     1     1     7
 0.0147379028     2     1     1     8
 0.0426788169     2     1     3     5
 0.0000000976     2     1     3     6
 -0.0000000976     2     1     4     5
 0.0426786806     2     1     4     6
 -0.0004766429     2     1     5     3
 0.0000000011     2     1     5     4
 -0.0000000001     2     1     5     9
 -0.0000000011     2     1     6     3
 -0.0004766427     2     1     6     4
 -0.0006709495     2     1     6     9
 -0.0000000001     2     1     9     5
 -0.0018304895     2     1     9     6
 0.2698120121     2     2     1     1
 0.2693361818     2     2     3     3
 0.2693361658     2     2     4     4
 0.0000000203     2     2     4     9
 0.2140811528     2     2     5     5
 0.2140811829     2     2     6     6
 0.2512868015     2     2     7     7
 0.2512867944     2     2     8     8
 0.0000000203     2     2     9     4
 0.1878383188     2     2     9     9
 0.0431407707     2     3     1     5
 0.0000000986     2     3     1     6
 -0.2693361818     2     3     3     2
 0.0000000109     2     3     3     7
 0.0023976140     2     3     3     8
 0.0023976129     2     3     4     7
 -0.0000000109     2     3     4     8
 0.0004766429     2     3     5     1
 0.0000000011     2     3     6     1
 0.0000000001     2     3     7     4
 -0.0005941410     2     3     7     9
 -0.0000000013     2     3     8     9
 0.0012046000     2     3     9     7
 0.0000000028     2     3     9     8
 -0.0000000986     2     4     1     5
 0.0431406350     2     4     1     6
 0.0023976126     2     4     3     7
 -0.0000000109     2     4     3     8
 -0.2693361658     2     4     4     2
 -0.0000000109     2     4     4     7
 -0.0023976213     2     4     4     8
 -0.0000000011     2     4     5     1
 0.0004766427     2     4     6     1
 -0.0000000001     2     4     7     3
 0.0000000013     2     4     7     9
 -0.0005941421     2     4     8     9
 -0.0000000203     2     4     9     2
 -0.0000000028     2     4     9     7
 0.0012045997     2     4     9     8
 -0.0431407707     2     5     1     3
 0.0000000986     2     5     1     4
 -0.0426788169     2     5     3     1
 0.0000000976     2     5     4     1
 -0.2140811528     2     5     5     2
 -0.0000000022     2     5     5     7
 0.0268345760     2     5     5     8
 -0.0268345795     2     5     6     7
 -0.0000000022     2     5     6     8
 0.0000029458     2     5     7     6
 0.0000000001     2     5     9     1
 -0.0000000986     2     6     1     3
 -0.0431406350     2     6     1     4
 0.0012415433     2     6     1     9
 -0.0000000976     2     6     3     1
 -0.0426786806     2     6     4     1
 -0.0268374077     2     6     5     7
 -0.0000000022     2     6     5     8
 -0.2140811829     2     6     6     2
 0.0000000022     2     6     6     7
 -0.0268374046     2     6     6     8
 -0.0000029458     2     6     7     5
 0.0018304895     2     6     9     1
 -0.0000000004     2     7     1     1
 -0.0000000109     2     7     3     3
 -0.0023976126     2     7     3     4
 -0.0021582107     2     7     3     9
 -0.0023976129     2     7     4     3
 0.0000000109     2     7     4     4
 0.0000000049     2     7     4     9
 0.0000000022     2     7     5     5
 0.0268374077     2     7     5     6
 0.0268345795     2     7     6     5
 -0.0000000022     2     7     6     6
 -0.2512868015     2     7     7     2
 -0.0012046000     2     7     9     3
 0.0000000028     2     7     9     4
 -0.0147379028     2     8     1     1
 -0.0023976140     2     8     3     3
 0.0000000109     2     8     3     4
 -0.0000000049     2     8     3     9
 0.0000000109     2     8     4     3
 0.0023976213     2     8     4     4
 -0.0021582117     2     8     4     9
 -0.0268345760     2     8     5     5
 0.0000000022     2     8     5     6
 0.0000000022     2     8     6     5
 0.0268374046     2     8     6     6
 -0.2512867944     2     8     8     2
 -0.0000000028     2     8     9     3
 -0.0012045997     2     8     9     4
 0.0000005725     2     8     9     9
 -0.0012415433     2     9     1     6
 0.0021582107     2     9     3     7
 0.0000000049     2     9     3     8
 -0.0000000203     2     9     4     2
 -0.0000000049     2     9     4     7
 0.0021582117     2     9     4     8
 0.0000000001     2     9     5     1
 0.0006709495     2     9     6     1
 0.0005941410     2     9     7     3
 -0.0000000013     2     9     7     4
 0.0000000013     2     9     8     3
 0.0005941421     2     9     8     4
 -0.1878383188     2     9     9     2
 -0.0000005725     2     9     9     8
 -0.2254884260     3     1     1     3
 -0.0000000104     3     1     1     4
 -0.0000000039     3     1     1     9
 -0.0426788169     3     1     2     5
 -0.0000000976     3     1     2     6
 -0.0431407707     3     1     5     2
 0.0000000618     3     1     5     7
 -0.0169261229     3     1     5     8
 -0.0000000986     3     1     6     2
 0.0347992602     3     1     6     7
 0.0000000607     3     1     6     8
 0.0000000628     3     1     7     5
 0.0359089168     3     1     7     6
 -0.0173853938     3     1     8     5
 0.0000000634     3     1     8     6
 0.0004766429     3     2     1     5
 0.0000000011     3     2     1     6
 -0.2693361818     3     2     2     3
 0.0000000001     3     2     4     7
 0.0431407707     3     2     5     1
 0.0000000986     3     2     6     1
 0.0000000109     3     2     7     3
 0.0023976129     3     2     7     4
 0.0012046000     3     2     7     9
 0.0023976140     3     2     8     3
 -0.0000000109     3     2     8     4
 0.0000000028     3     2     8     9
 -0.0005941410     3     2     9     7
 -0.0000000013     3     2     9     8
 0.2254884260     3     3     1     1
 0.2693361818     3     3     2     2
 -0.0000000109     3     3     2     7
 -0.0023976140     3     3     2     8
 0.2578296122     3     3     4     4
 0.0000000202     3     3     4     9
 0.2652350222     3     3     5     5
 0.0000000079     3     3     5     6
 0.0000000079     3     3     6     5
 0.2686585748     3     3     6     6
 -0.0000000109     3     3     7     2
 0.2614791984     3     3     7     7
 0.0000000088     3     3     7     8
 -0.0023976140     3     3     8     2
 0.0000000088     3     3     8     7
 0.2576774336     3     3     8     8
 0.0000000202     3     3     9     4
 0.1892658138     3     3     9     9
 0.0000000104     3     4     1     1
 -0.0023976126     3     4     2     7
 0.0000000109     3     4     2     8
 -0.2578296122     3     4     4     3
 0.0000000079     3     4     5     5
 0.0020826326     3     4     5     6
 0.0013409228     3     4     6     5
 -0.0000000079     3     4     6     6
 -0.0023976129     3     4     7     2
 -0.0000000088     3     4     7     7
 0.0010251881     3     4     7     8
 0.0000000109     3     4     8     2
 0.0027765620     3     4     8     7
 0.0000000088     3     4     8     8
 -0.0000000202     3     4     9     3
 -0.0004766429     3     5     1     2
 -0.0000000003     3     5     1     7
 0.0002524328     3     5     1     8
 0.0426788169     3     5     2     1
 0.0000715150     3     5     4     6
 -0.2652350222     3     5     5     3
 -0.0000000079     3     5     5     4
 0.0000000022     3     5     5     9
 -0.0000000079     3     5     6     3
 -0.0013409228     3     5     6     4
 -0.0009968837     3     5     6     9
 -0.0000000628     3     5     7     1
 0.0173853938     3     5     8     1
 0.0000035218     3     5     9     6
 -0.0000000011     3     6     1     2
 -0.0006238947     3     6     1     7
 -0.0000000018     3     6     1     8
 0.0000000976     3     6     2     1
 -0.0000715150     3     6     4     5
 -0.0000000079     3     6     5     3
 -0.0020826326     3     6     5     4
 -0.0009909490     3     6     5     9
 -0.2686585748     3     6     6     3
 0.0000000079     3     6     6     4
 -0.0000000022     3     6     6     9
 -0.0359089168     3     6     7     1
 -0.0000000634     3     6     8     1
 -0.0000035218     3     6     9     5
 0.0000000003     3     7     1     5
 0.0006238947     3     7     1     6
 0.0000000109     3     7     2     3
 0.0023976126     3     7     2     4
 0.0021582107     3     7     2     9
 -0.0000000001     3     7     4     2
 -0.0007791476     3     7     4     8
 -0.0000000618     3     7     5     1
 -0.0347992602     3     7     6     1
 -0.2614791984     3     7     7     3
 0.0000000088     3     7     7     4
 -0.0000000006     3     7     7     9
 -0.0000000088     3     7     8     3
 -0.0027765620     3     7     8     4
 -0.0002677914     3     7     8     9
 0.0005941410     3     7     9     2
 -0.0000000014     3     7     9     8
 -0.0002524328     3     8     1     5
 0.0000000018     3     8     1     6
 0.0023976140     3     8     2     3
 -0.0000000109     3     8     2     4
 0.0000000049     3     8     2     9
 0.0007791476     3     8     4     7
 0.0169261229     3     8     5     1
 -0.0000000607     3     8     6     1
 -0.0000000088     3     8     7     3
 -0.0010251881     3     8     7     4
 -0.0002773880     3     8     7     9
 -0.2576774336     3     8     8     3
 -0.0000000088     3     8     8     4
 0.0000000006     3     8     8     9
 0.0000000013     3     8     9     2
 0.0000000014     3     8     9     7
 0.0000000039     3     9     1     1
 -0.0021582107     3     9     2     7
 -0.0000000049     3     9     2     8
 -0.0000000202     3     9     4     3
 -0.0000000022     3     9     5     5
 0.0009909490     3     9     5     6
 0.0009968837     3     9     6     5
 0.0000000022     3     9     6     6
 -0.0012046000     3     9     7     2
 0.0000000006     3     9     7     7
 0.0002773880     3     9     7     8
 -0.0000000028     3     9     8     2
 0.0002677914     3     9     8     7
 -0.0000000006     3     9     8     8
 -0.1892658138     3     9     9     3
 -0.0000000104     4     1     1     3
 -0.2301199130     4     1     1     4
 -0.0016819681     4     1     1     9
 0.0000000976     4     1     2     5
 -0.0426786806     4     1     2     6
 0.0000000986     4     1     5     2
 0.0261500051     4     1     5     7
 0.0000000411     4     1     5     8
 -0.0431406350     4     1     6     2
 -0.0000000813     4     1     6     7
 0.0255750599     4     1     6     8
 0.0265645598     4     1     7     5
 -0.0000000839     4     1     7     6
 0.0000000422     4     1     8     5
 0.0267359433     4     1     8     6
 -0.0000000011     4     2     1     5
 0.0004766427     4     2     1     6
 -0.2693361658     4     2     2     4
 -0.0000000203     4     2     2     9
 -0.0000000001     4     2     3     7
 -0.0000000986     4     2     5     1
 0.0431406350     4     2     6     1
 0.0023976126     4     2     7     3
 -0.0000000109     4     2     7     4
 -0.0000000028     4     2     7     9
 -0.0000000109     4     2     8     3
 -0.0023976213     4     2     8     4
 0.0012045997     4     2     8     9
 0.0000000013     4     2     9     7
 -0.0005941421     4     2     9     8
 0.0000000104     4     3     1     1
 -0.0023976129     4     3     2     7
 0.0000000109     4     3     2     8
 -0.2578296122     4     3     3     4
 -0.0000000202     4     3     3     9
 0.0000000079     4     3     5     5
 0.0013409228     4     3     5     6
 0.0020826326     4     3     6     5
 -0.0000000079     4     3     6     6
 -0.0023976126     4     3     7     2
 -0.0000000088     4     3     7     7
 0.0027765620     4     3     7     8
 0.0000000109     4     3     8     2
 0.0010251881     4     3     8     7
 0.0000000088     4     3     8     8
 0.2301199130     4     4     1     1
 0.2693361658     4     4     2     2
 0.0000000109     4     4     2     7
 0.0023976213     4     4     2     8
 0.2578296122     4     4     3     3
 0.2686585671     4     4     5     5
 -0.0000000079     4     4     5     6
 -0.0000000079     4     4     6     5
 0.2652349955     4     4     6     6
 0.0000000109     4     4     7     2
 0.2576774278     4     4     7     7
 -0.0000000088     4     4     7     8
 0.0023976213     4     4     8     2
 -0.0000000088     4     4     8     7
 0.2614791774     4     4     8     8
 0.1892658257     4     4     9     9
 0.0000000011     4     5     1     2
 -0.0001055074     4     5     1     7
 -0.0000000006     4     5     1     8
 -0.0000000976     4     5     2     1
 -0.0000715150     4     5     3     6
 -0.0000000079     4     5     5     3
 -0.2686585671     4     5     5     4
 0.0009973128     4     5     5     9
 -0.0020826326     4     5     6     3
 0.0000000079     4     5     6     4
 0.0000000022     4     5     6     9
 -0.0265645598     4     5     7     1
 -0.0000000422     4     5     8     1
 -0.0000000001     4     5     9     6
 -0.0004766427     4     6     1     2
 0.0000000014     4     6     1     7
 -0.0007780965     4     6     1     8
 0.0426786806     4     6     2     1
 0.0000715150     4     6     3     5
 -0.0013409228     4     6     5     3
 0.0000000079     4     6     5     4
 0.0000000023     4     6     5     9
 0.0000000079     4     6     6     3
 -0.2652349955     4     6     6     4
 -0.0009914205     4     6     6     9
 0.0000000839     4     6     7     1
 -0.0267359433     4     6     8     1
 0.0000000001     4     6     9     5
 0.0001055074     4     7     1     5
 -0.0000000014     4     7     1     6
 0.0023976129     4     7     2     3
 -0.0000000109     4     7     2     4
 -0.0000000049     4     7     2     9
 0.0000000001     4     7     3     2
 0.0007791476     4     7     3     8
 -0.0261500051     4     7     5     1
 0.0000000813     4     7     6     1
 0.0000000088     4     7     7     3
 -0.2576774278     4     7     7     4
 -0.0002755676     4     7     7     9
 -0.0010251881     4     7     8     3
 0.0000000088     4     7     8     4
 0.0000000006     4     7     8     9
 -0.0000000013     4     7     9     2
 0.0000000006     4     8     1     5
 0.0007780965     4     8     1     6
 -0.0000000109     4     8     2     3
 -0.0023976213     4     8     2     4
 0.0021582117     4     8     2     9
 -0.0007791476     4     8     3     7
 -0.0000000411     4     8     5     1
 -0.0255750599     4     8     6     1
 -0.0027765620     4     8     7     3
 0.0000000088     4     8     7     4
 0.0000000006     4     8     7     9
 -0.0000000088     4     8     8     3
 -0.2614791774     4     8     8     4
 0.0002659333     4     8     8     9
 0.0005941421     4     8     9     2
 0.0016819681     4     9     1     1
 0.0000000203     4     9     2     2
 0.0000000049     4     9     2     7
 -0.0021582117     4     9     2     8
 0.0000000202     4     9     3     3
 -0.0009973128     4     9     5     5
 -0.0000000023     4     9     5     6
 -0.0000000022     4     9     6     5
 0.0009914205     4     9     6     6
 0.0000000028     4     9     7     2
 0.0002755676     4     9     7     7
 -0.0000000006     4     9     7     8
 -0.0012045997     4     9     8     2
 -0.0000000006     4     9     8     7
 -0.0002659333     4     9     8     8
 -0.1892658257     4     9     9     4
 -0.2532088376     5     1     1     5
 -0.0000000014     5     1     1     6
 0.0004766429     5     1     2     3
 -0.0000000011     5     1     2     4
 0.0000000001     5     1     2     9
 0.0431407707     5     1     3     2
 -0.0000000618     5     1     3     7
 0.0169261229     5     1     3     8
 -0.0000000986     5     1     4     2
 -0.0261500051     5     1     4     7
 -0.0000000411     5     1     4     8
 0.0000000003     5     1     7     3
 0.0001055074     5     1     7     4
 0.0002750709     5     1     7     9
 -0.0002524328     5     1     8     3
 0.0000000006     5     1     8     4
 0.0006359516     5     1     9     7
 -0.0426788169     5     2     1     3
 0.0000000976     5     2     1     4
 0.0000000001     5     2     1     9
 -0.2140811528     5     2     2     5
 -0.0431407707     5     2     3     1
 0.0000000986     5     2     4     1
 0.0000029458     5     2     6     7
 -0.0000000022     5     2     7     5
 -0.0268345795     5     2     7     6
 0.0268345760     5     2     8     5
 -0.0000000022     5     2     8     6
 0.0426788169     5     3     1     2
 -0.0000000628     5     3     1     7
 0.0173853938     5     3     1     8
 -0.0004766429     5     3     2     1
 -0.2652350222     5     3     3     5
 -0.0000000079     5     3     3     6
 -0.0000000079     5     3     4     5
 -0.0013409228     5     3     4     6
 0.0000715150     5     3     6     4
 0.0000035218     5     3     6     9
 -0.0000000003     5     3     7     1
 0.0002524328     5     3     8     1
 0.0000000022     5     3     9     5
 -0.0009968837     5     3     9     6
 -0.0000000976     5     4     1     2
 -0.0265645598     5     4     1     7
 -0.0000000422     5     4     1     8
 0.0000000011     5     4     2     1
 -0.0000000079     5     4     3     5
 -0.0020826326     5     4     3     6
 -0.2686585671     5     4     4     5
 0.0000000079     5     4     4     6
 -0.0000715150     5     4     6     3
 -0.0000000001     5     4     6     9
 -0.0001055074     5     4     7     1
 -0.0000000006     5     4     8     1
 0.0009973128     5     4     9     5
 0.0000000022     5     4     9     6
 0.2532088376     5     5     1     1
 0.2140811528     5     5     2     2
 0.0000000022     5     5     2     7
 -0.0268345760     5     5     2     8
 0.2652350222     5     5     3     3
 0.0000000079     5     5     3     4
 -0.0000000022     5     5     3     9
 0.0000000079     5     5     4     3
 0.2686585671     5     5     4     4
 -0.0009973128     5     5     4     9
 0.2505466726     5     5     6     6
 0.0000000022     5     5     7     2
 0.2299788821     5     5     7     7
 -0.0000000001     5     5     7     8
 -0.0268345760     5     5     8     2
 -0.0000000001     5     5     8     7
 0.2390623842     5     5     8     8
 -0.0000000022     5     5     9     3
 -0.0009973128     5     5     9     4
 0.1877402242     5     5     9     9
 0.0000000014     5     6     1     1
 0.0268374077     5     6     2     7
 0.0000000022     5     6     2     8
 0.0000000079     5     6     3     3
 0.0020826326     5     6     3     4
 0.0009909490     5     6     3     9
 0.0013409228     5     6     4     3
 -0.0000000079     5     6     4     4
 -0.0000000023     5     6     4     9
 -0.2505466726     5     6     6     5
 0.0268345795     5     6     7     2
 -0.0000000001     5     6     7     7
 0.0279437548     5     6     7     8
 0.0000000022     5     6     8     2
 -0.0188640411     5     6     8     7
 0.0000000001     5     6     8     8
 0.0009968837     5     6     9     3
 -0.0000000022     5     6     9     4
 0.0000000628     5     7     1     3
 0.0265645598     5     7     1     4
 0.0003009919     5     7     1     9
 -0.0000000022     5     7     2     5
 -0.0268374077     5     7     2     6
 0.0000000618     5     7     3     1
 0.0261500051     5     7     4     1
 -0.0000029458     5     7     6     2
 0.0456097881     5     7     6     8
 -0.2299788821     5     7     7     5
 0.0000000001     5     7     7     6
 0.0000000001     5     7     8     5
 0.0188640411     5     7     8     6
 -0.0006359516     5     7     9     1
 -0.0173853938     5     8     1     3
 0.0000000422     5     8     1     4
 0.0268345760     5     8     2     5
 -0.0000000022     5     8     2     6
 -0.0169261229     5     8     3     1
 0.0000000411     5     8     4     1
 -0.0456097881     5     8     6     7
 0.0000000001     5     8     7     5
 -0.0279437548     5     8     7     6
 -0.2390623842     5     8     8     5
 -0.0000000001     5     8     8     6
 -0.0000000001     5     9     1     2
 -0.0003009919     5     9     1     7
 -0.0000000001     5     9     2     1
 0.0000000022     5     9     3     5
 -0.0009909490     5     9     3     6
 0.0009973128     5     9     4     5
 0.0000000023     5     9     4     6
 -0.0000035218     5     9     6     3
 0.0000000001     5     9     6     4
 -0.0002750709     5     9     7     1
 -0.1877402242     5     9     9     5
 -0.0000000014     6     1     1     5
 -0.2802017459     6     1     1     6
 0.0000000011     6     1     2     3
 0.0004766427     6     1     2     4
 0.0006709495     6     1     2     9
 0.0000000986     6     1     3     2
 -0.0347992602     6     1     3     7
 -0.0000000607     6     1     3     8
 0.0431406350     6     1     4     2
 0.0000000813     6     1     4     7
 -0.0255750599     6     1     4     8
 0.0006238947     6     1     7     3
 -0.0000000014     6     1     7     4
 0.0000000018     6     1     8     3
 0.0007780965     6     1     8     4
 0.0002744517     6     1     8     9
 -0.0012415433     6     1     9     2
 0.0006359537     6     1     9     8
 -0.0000000976     6     2     1     3
 -0.0426786806     6     2     1     4
 0.0018304895     6     2     1     9
 -0.2140811829     6     2     2     6
 -0.0000000986     6     2     3     1
 -0.0431406350     6     2     4     1
 -0.0000029458     6     2     5     7
 -0.0268374077     6     2     7     5
 0.0000000022     6     2     7     6
 -0.0000000022     6     2     8     5
 -0.0268374046     6     2     8     6
 0.0012415433     6     2     9     1
 0.0000000976     6     3     1     2
 -0.0359089168     6     3     1     7
 -0.0000000634     6     3     1     8
 -0.0000000011     6     3     2     1
 -0.0000000079     6     3     3     5
 -0.2686585748     6     3     3     6
 -0.0020826326     6     3     4     5
 0.0000000079     6     3     4     6
 -0.0000715150     6     3     5     4
 -0.0000035218     6     3     5     9
 -0.0006238947     6     3     7     1
 -0.0000000018     6     3     8     1
 -0.0009909490     6     3     9     5
 -0.0000000022     6     3     9     6
 0.0426786806     6     4     1     2
 0.0000000839     6     4     1     7
 -0.0267359433     6     4     1     8
 -0.0004766427     6     4     2     1
 -0.0013409228     6     4     3     5
 0.0000000079     6     4     3     6
 0.0000000079     6     4     4     5
 -0.2652349955     6     4     4     6
 0.0000715150     6     4     5     3
 0.0000000001     6     4     5     9
 0.0000000014     6     4     7     1
 -0.0007780965     6     4     8     1
 0.0000000023     6     4     9     5
 -0.0009914205     6     4     9     6
 0.0000000014     6     5     1     1
 0.0268345795     6     5     2     7
 0.0000000022     6     5     2     8
 0.0000000079     6     5     3     3
 0.0013409228     6     5     3     4
 0.0009968837     6     5     3     9
 0.0020826326     6     5     4     3
 -0.0000000079     6     5     4     4
 -0.0000000022     6     5     4     9
 -0.2505466726     6     5     5     6
 0.0268374077     6     5     7     2
 -0.0000000001     6     5     7     7
 -0.0188640411     6     5     7     8
 0.0000000022     6     5     8     2
 0.0279437548     6     5     8     7
 0.0000000001     6     5     8     8
 0.0009909490     6     5     9     3
 -0.0000000023     6     5     9     4
 0.2802017459     6     6     1     1
 0.2140811829     6     6     2     2
 -0.0000000022     6     6     2     7
 0.0268374046     6     6     2     8
 0.2686585748     6     6     3     3
 -0.0000000079     6     6     3     4
 0.0000000022     6     6     3     9
 -0.0000000079     6     6     4     3
 0.2652349955     6     6     4     4
 0.0009914205     6     6     4     9
 0.2505466726     6     6     5     5
 -0.0000000022     6     6     7     2
 0.2390623806     6     6     7     7
 0.0000000001     6     6     7     8
 0.0268374046     6     6     8     2
 0.0000000001     6     6     8     7
 0.2299788731     6     6     8     8
 0.0000000022     6     6     9     3
 0.0009914205     6     6     9     4
 0.1877402055     6     6     9     9
 0.0359089168     6     7     1     3
 -0.0000000839     6     7     1     4
 -0.0268345795     6     7     2     5
 0.0000000022     6     7     2     6
 0.0347992602     6     7     3     1
 -0.0000000813     6     7     4     1
 0.0000029458     6     7     5     2
 -0.0456097881     6     7     5     8
 0.0000000001     6     7     7     5
 -0.2390623806     6     7     7     6
 -0.0279437548     6     7     8     5
 -0.0000000001     6     7     8     6
 0.0000000634     6     8     1     3
 0.0267359433     6     8     1     4
 0.0003045652     6     8     1     9
 -0.0000000022     6     8     2     5
 -0.0268374046     6     8     2     6
 0.0000000607     6     8     3     1
 0.0255750599     6     8     4     1