&FCI NORB= 13,NELEC= 14,MS2=0,
 ORBSYM=1,1,1,1,1,1,1,1,1,1,1,1,1
 ISYM=1,
&END
 0.3022557699     1     1     2     2
 0.0000000008     1     1     2     3
 -0.0013598961     1     1     2     4
 -0.0000000037     1     1     2     5
 0.0059054266     1     1     2    10
 -0.0060393584     1     1     2    11
 0.0000000008     1     1     3     2
 0.6131549735     1     1     3     3
 -0.0000003374     1     1     3     4
 -0.0322597112     1     1     3     5
 -0.0000001297     1     1     3    10
 -0.0000000307     1     1     3    11
 -0.0013598961     1     1     4     2
 -0.0000003374     1     1     4     3
 0.6037931267     1     1     4     4
 -0.0000001845     1     1     4     5
 0.0506448320     1     1     4    10
 0.1074059061     1     1     4    11
 -0.0000000037     1     1     5     2
 -0.0322597112     1     1     5     3
 -0.0000001845     1     1     5     4
 0.6094769991     1     1     5     5
 0.0000003017     1     1     5    10
 -0.0000002124     1     1     5    11
 0.5658011084     1     1     6     6
 -0.0000003170     1     1     6     8
 -0.0000000247     1     1     6     9
 -0.0211202960     1     1     6    12
 0.1909142006     1     1     6    13
 0.5658011084     1     1     7     7
 0.0000000247     1     1     7     8
 -0.0000003170     1     1     7     9
 0.1909142006     1     1     7    12
 0.0211202960     1     1     7    13
 -0.0000003170     1     1     8     6
 0.0000000247     1     1     8     7
 0.5841627342     1     1     8     8
 0.0000000475     1     1     8    12
 -0.0000002494     1     1     8    13
 -0.0000000247     1     1     9     6
 -0.0000003170     1     1     9     7
 0.5841627342     1     1     9     9
 -0.0000002494     1     1     9    12
 -0.0000000475     1     1     9    13
 0.0059054266     1     1    10     2
 -0.0000001297     1     1    10     3
 0.0506448320     1     1    10     4
 0.0000003017     1     1    10     5
 0.6303937492     1     1    10    10
 -0.1897403692     1     1    10    11
 -0.0060393584     1     1    11     2
 -0.0000000307     1     1    11     3
 0.1074059061     1     1    11     4
 -0.0000002124     1     1    11     5
 -0.1897403692     1     1    11    10
 0.5107689999     1     1    11    11
 -0.0211202960     1     1    12     6
 0.1909142006     1     1    12     7
 0.0000000475     1     1    12     8
 -0.0000002494     1     1    12     9
 0.5746559663     1     1    12    12
 0.1909142006     1     1    13     6
 0.0211202960     1     1    13     7
 -0.0000002494     1     1    13     8
 -0.0000000475     1     1    13     9
 0.5746559663     1     1    13    13
 -0.3022557699     1     2     2     1
 -0.0013034934     1     2     2     3
 -0.0000000008     1     2     2     4
 0.0062093168     1     2     2     5
 0.0000000035     1     2     2    10
 -0.0000000036     1     2     2    11
 -0.0000000008     1     2     3     1
 -0.0000000004     1     2     3     3
 0.2852138665     1     2     3     4
 0.1096966706     1     2     3    10
 0.0257622201     1     2     3    11
 0.0013598961     1     2     4     1
 0.2852358652     1     2     4     3
 0.0000000003     1     2     4     4
 0.1558963415     1     2     4     5
 0.0000000001     1     2     4    10
 -0.0000000002     1     2     4    11
 0.0000000037     1     2     5     1
 0.1559515807     1     2     5     4
 -0.0000000002     1     2     5     5
 -0.2551209868     1     2     5    10
 0.1794324115     1     2     5    11
 -0.0000000002     1     2     6     6
 0.2679189611     1     2     6     8
 0.0209373265     1     2     6     9
 -0.0000000003     1     2     6    13
 -0.0000000002     1     2     7     7
 -0.0209373265     1     2     7     8
 0.2679189611     1     2     7     9
 -0.0000000003     1     2     7    12
 0.2678187765     1     2     8     6
 -0.0209294973     1     2     8     7
 0.0000000002     1     2     8     8
 -0.0401032333     1     2     8    12
 0.2106025638     1     2     8    13
 0.0209294973     1     2     9     6
 0.2678187765     1     2     9     7
 0.0000000002     1     2     9     9
 0.2106025638     1     2     9    12
 0.0401032333     1     2     9    13
 -0.0059054266     1     2    10     1
 0.1096398523     1     2    10     3
 0.0000000001     1     2    10     4
 -0.2548804510     1     2    10     5
 0.0000000002     1     2    10    10
 0.0060393584     1     2    11     1
 0.0258066465     1     2    11     3
 -0.0000000002     1     2    11     4
 0.1791828088     1     2    11     5
 -0.0000000006     1     2    11    11
 -0.0000000003     1     2    12     7
 -0.0401260424     1     2    12     8
 0.2107223456     1     2    12     9
 -0.0000000007     1     2    12    12
 -0.0000000003     1     2    13     6
 0.2107223456     1     2    13     8
 0.0401260424     1     2    13     9
 -0.0000000007     1     2    13    13
 -0.0000000008     1     3     2     1
 0.0013034934     1     3     2     2
 -0.0000187253     1     3     2     4
 0.0000554059     1     3     2    10
 -0.0000462184     1     3     2    11
 -0.6131549735     1     3     3     1
 0.0000000004     1     3     3     2
 -0.0000000009     1     3     3     4
 0.0072223538     1     3     3     5
 0.0000000046     1     3     3    10
 -0.0000000052     1     3     3    11
 0.0000003374     1     3     4     1
 -0.2852358652     1     3     4     2
 -0.0020195356     1     3     4     4
 0.0000000042     1     3     4     5
 0.0064102825     1     3     4    10
 -0.0060850693     1     3     4    11
 0.0322597112     1     3     5     1
 0.0000000047     1     3     5     4
 -0.0210088753     1     3     5     5
 -0.0000000121     1     3     5    10
 0.0000000132     1     3     5    11
 -0.0166410572     1     3     6     6
 0.0000000109     1     3     6     8
 0.0000000009     1     3     6     9
 0.0024380170     1     3     6    12
 -0.0220381413     1     3     6    13
 -0.0166410572     1     3     7     7
 -0.0000000009     1     3     7     8
 0.0000000109     1     3     7     9
 -0.0220381413     1     3     7    12
 -0.0024380170     1     3     7    13
 0.0000000094     1     3     8     6
 -0.0000000007     1     3     8     7
 -0.0174248678     1     3     8     8
 -0.0000000024     1     3     8    12
 0.0000000127     1     3     8    13
 0.0000000007     1     3     9     6
 0.0000000094     1     3     9     7
 -0.0174248678     1     3     9     9
 0.0000000127     1     3     9    12
 0.0000000024     1     3     9    13
 0.0000001297     1     3    10     1
 -0.1096398523     1     3    10     2
 0.0064204163     1     3    10     4
 -0.0000000098     1     3    10     5
 -0.0161673125     1     3    10    10
 0.0183589531     1     3    10    11
 0.0000000307     1     3    11     1
 -0.0258066465     1     3    11     2
 -0.0051237306     1     3    11     4
 0.0000000080     1     3    11     5
 0.0129940767     1     3    11    10
 -0.0162034800     1     3    11    11
 0.0014583756     1     3    12     6
 -0.0131827989     1     3    12     7
 -0.0000000017     1     3    12     8
 0.0000000091     1     3    12     9
 -0.0190174847     1     3    12    12
 -0.0131827989     1     3    13     6
 -0.0014583756     1     3    13     7
 0.0000000091     1     3    13     8
 0.0000000017     1     3    13     9
 -0.0190174847     1     3    13    13
 0.0013598961     1     4     2     1
 0.0000000008     1     4     2     2
 0.0000187253     1     4     2     3
 -0.0000566630     1     4     2     5
 0.0000003374     1     4     3     1
 -0.2852138665     1     4     3     2
 0.0000000009     1     4     3     3
 -0.0000000005     1     4     3     5
 -0.0001022341     1     4     3    10
 -0.0008350112     1     4     3    11
 -0.6037931267     1     4     4     1
 -0.0000000003     1     4     4     2
 0.0020195356     1     4     4     3
 -0.0020358272     1     4     4     5
 -0.0000000016     1     4     4    10
 0.0000000022     1     4     4    11
 0.0000001845     1     4     5     1
 -0.1559515807     1     4     5     2
 -0.0000000047     1     4     5     3
 0.0000000117     1     4     5     5
 0.0200794767     1     4     5    10
 -0.0195905021     1     4     5    11
 0.0000000103     1     4     6     6
 -0.0166214645     1     4     6     8
 -0.0012989339     1     4     6     9
 -0.0000000014     1     4     6    12
 0.0000000126     1     4     6    13
 0.0000000103     1     4     7     7
 0.0012989339     1     4     7     8
 -0.0166214645     1     4     7     9
 0.0000000126     1     4     7    12
 0.0000000014     1     4     7    13
 -0.0164307581     1     4     8     6
 0.0012840306     1     4     8     7
 0.0000000118     1     4     8     8
 0.0044342630     1     4     8    12
 -0.0232865797     1     4     8    13
 -0.0012840306     1     4     9     6
 -0.0164307581     1     4     9     7
 0.0000000118     1     4     9     9
 -0.0232865797     1     4     9    12
 -0.0044342630     1     4     9    13
 -0.0506448320     1     4    10     1
 -0.0000000001     1     4    10     2
 -0.0064204163     1     4    10     3
 0.0169445996     1     4    10     5
 0.0000000131     1     4    10    10
 -0.0000000118     1     4    10    11
 -0.1074059061     1     4    11     1
 0.0000000002     1     4    11     2
 0.0051237306     1     4    11     3
 -0.0125894557     1     4    11     5
 -0.0000000095     1     4    11    10
 0.0000000087     1     4    11    11
 -0.0000000010     1     4    12     6
 0.0000000086     1     4    12     7
 0.0031143138     1     4    12     8
 -0.0163548528     1     4    12     9
 0.0000000129     1     4    12    12
 0.0000000086     1     4    13     6
 0.0000000010     1     4    13     7
 -0.0163548528     1     4    13     8
 -0.0031143138     1     4    13     9
 0.0000000129     1     4    13    13
 0.0000000037     1     5     2     1
 -0.0062093168     1     5     2     2
 0.0000566630     1     5     2     4
 -0.0002449749     1     5     2    10
 0.0002449278     1     5     2    11
 0.0322597112     1     5     3     1
 -0.0072223538     1     5     3     3
 0.0000000005     1     5     3     4
 -0.0000000020     1     5     3    10
 0.0000000049     1     5     3    11
 0.0000001845     1     5     4     1
 -0.1558963415     1     5     4     2
 -0.0000000042     1     5     4     3
 0.0020358272     1     5     4     4
 0.0026493092     1     5     4    10
 -0.0065022282     1     5     4    11
 -0.6094769991     1     5     5     1
 0.0000000002     1     5     5     2
 0.0210088753     1     5     5     3
 -0.0000000117     1     5     5     4
 -0.0000000018     1     5     5    10
 -0.0000000020     1     5     5    11
 -0.0065276921     1     5     6     6
 0.0000000002     1     5     6     8
 0.0004281333     1     5     6    12
 -0.0038700555     1     5     6    13
 -0.0065276921     1     5     7     7
 0.0000000002     1     5     7     9
 -0.0038700555     1     5     7    12
 -0.0004281333     1     5     7    13
 0.0000000008     1     5     8     6
 -0.0060133652     1     5     8     8
 -0.0000000005     1     5     8    12
 0.0000000025     1     5     8    13
 0.0000000008     1     5     9     7
 -0.0060133652     1     5     9     9
 0.0000000025     1     5     9    12
 0.0000000005     1     5     9    13
 -0.0000003017     1     5    10     1
 0.2548804510     1     5    10     2
 0.0000000098     1     5    10     3
 -0.0169445996     1     5    10     4
 -0.0144058478     1     5    10    10
 0.0030309607     1     5    10    11
 0.0000002124     1     5    11     1
 -0.1791828088     1     5    11     2
 -0.0000000080     1     5    11     3
 0.0125894557     1     5    11     4
 0.0097682340     1     5    11    10
 0.0024152162     1     5    11    11
 0.0004000688     1     5    12     6
 -0.0036163708     1     5    12     7
 -0.0000000003     1     5    12     8
 0.0000000017     1     5    12     9
 -0.0072515922     1     5    12    12
 -0.0036163708     1     5    13     6
 -0.0004000688     1     5    13     7
 0.0000000017     1     5    13     8
 0.0000000003     1     5    13     9
 -0.0072515922     1     5    13    13
 0.0001071665     1     6     2     8
 0.0000083749     1     6     2     9
 0.0000000013     1     6     3     8
 0.0000000002     1     6     3     9
 0.0009249080     1     6     3    12
 -0.0083605863     1     6     3    13
 0.0001492631     1     6     4     8
 0.0000116646     1     6     4     9
 -0.0000000004     1     6     4    12
 0.0000000037     1     6     4    13
 -0.0000000005     1     6     5     8
 0.0000189606     1     6     5    12
 -0.0001713922     1     6     5    13
 -0.5658011084     1     6     6     1
 0.0000000002     1     6     6     2
 0.0166410572     1     6     6     3
 -0.0000000103     1     6     6     4
 0.0065276921     1     6     6     5
 -0.0000000013     1     6     6    10
 -0.0000000045     1     6     6    11
 0.0000003170     1     6     8     1
 -0.2678187765     1     6     8     2
 -0.0000000094     1     6     8     3
 0.0164307581     1     6     8     4
 -0.0000000008     1     6     8     5
 0.0086277885     1     6     8    10
 0.0017011244     1     6     8    11
 0.0000000247     1     6     9     1
 -0.0209294973     1     6     9     2
 -0.0000000007     1     6     9     3
 0.0012840306     1     6     9     4
 0.0006742443     1     6     9    10
 0.0001329394     1     6     9    11
 0.0000188661     1     6    10     8
 0.0000014744     1     6    10     9
 -0.0000000002     1     6    10    12
 0.0000000012     1     6    10    13
 0.0001144474     1     6    11     8
 0.0000089438     1     6    11     9
 0.0000000001     1     6    11    12
 -0.0000000004     1     6    11    13
 0.0211202960     1     6    12     1
 -0.0014583756     1     6    12     3
 0.0000000010     1     6    12     4
 -0.0004000688     1     6    12     5
 0.0000000003     1     6    12    10
 0.0000000004     1     6    12    11
 -0.1909142006     1     6    13     1
 0.0000000003     1     6    13     2
 0.0131827989     1     6    13     3
 -0.0000000086     1     6    13     4
 0.0036163708     1     6    13     5
 -0.0000000034     1     6    13    10
 -0.0000000035     1     6    13    11
 -0.0000083749     1     7     2     8
 0.0001071665     1     7     2     9
 -0.0000000002     1     7     3     8
 0.0000000013     1     7     3     9
 -0.0083605863     1     7     3    12
 -0.0009249080     1     7     3    13
 -0.0000116646     1     7     4     8
 0.0001492631     1     7     4     9
 0.0000000037     1     7     4    12
 0.0000000004     1     7     4    13
 -0.0000000005     1     7     5     9
 -0.0001713922     1     7     5    12
 -0.0000189606     1     7     5    13
 -0.5658011084     1     7     7     1
 0.0000000002     1     7     7     2
 0.0166410572     1     7     7     3
 -0.0000000103     1     7     7     4
 0.0065276921     1     7     7     5
 -0.0000000013     1     7     7    10
 -0.0000000045     1     7     7    11
 -0.0000000247     1     7     8     1
 0.0209294973     1     7     8     2
 0.0000000007     1     7     8     3
 -0.0012840306     1     7     8     4
 -0.0006742443     1     7     8    10
 -0.0001329394     1     7     8    11
 0.0000003170     1     7     9     1
 -0.2678187765     1     7     9     2
 -0.0000000094     1     7     9     3
 0.0164307581     1     7     9     4
 -0.0000000008     1     7     9     5
 0.0086277885     1     7     9    10
 0.0017011244     1     7     9    11
 -0.0000014744     1     7    10     8
 0.0000188661     1     7    10     9
 0.0000000012     1     7    10    12
 0.0000000002     1     7    10    13
 -0.0000089438     1     7    11     8
 0.0001144474     1     7    11     9
 -0.0000000004     1     7    11    12
 -0.0000000001     1     7    11    13
 -0.1909142006     1     7    12     1
 0.0000000003     1     7    12     2
 0.0131827989     1     7    12     3
 -0.0000000086     1     7    12     4
 0.0036163708     1     7    12     5
 -0.0000000034     1     7    12    10
 -0.0000000035     1     7    12    11
 -0.0211202960     1     7    13     1
 0.0014583756     1     7    13     3
 -0.0000000010     1     7    13     4
 0.0004000688     1     7    13     5
 -0.0000000003     1     7    13    10
 -0.0000000004     1     7    13    11
 -0.0001071665     1     8     2     6
 0.0000083749     1     8     2     7
 0.0000229399     1     8     2    12
 -0.0001204693     1     8     2    13
 -0.0000000013     1     8     3     6
 0.0000000002     1     8     3     7
 -0.0000000007     1     8     3    12
 0.0000000036     1     8     3    13
 -0.0001492631     1     8     4     6
 0.0000116646     1     8     4     7
 0.0012464128     1     8     4    12
 -0.0065455504     1     8     4    13
 0.0000000005     1     8     5     6
 -0.0000000002     1     8     5    12
 0.0000000008     1     8     5    13
 0.0000003170     1     8     6     1
 -0.2679189611     1     8     6     2
 -0.0000000109     1     8     6     3
 0.0166214645     1     8     6     4
 -0.0000000002     1     8     6     5
 0.0088544367     1     8     6    10
 0.0015592929     1     8     6    11
 -0.0000000247     1     8     7     1
 0.0209373265     1     8     7     2
 0.0000000009     1     8     7     3
 -0.0012989339     1     8     7     4
 -0.0006919564     1     8     7    10
 -0.0001218556     1     8     7    11
 -0.5841627342     1     8     8     1
 -0.0000000002     1     8     8     2
 0.0174248678     1     8     8     3
 -0.0000000118     1     8     8     4
 0.0060133652     1     8     8     5
 -0.0000000032     1     8     8    10
 -0.0000000037     1     8     8    11
 -0.0000188661     1     8    10     6
 0.0000014744     1     8    10     7
 0.0004177107     1     8    10    12
 -0.0021936124     1     8    10    13
 -0.0001144474     1     8    11     6
 0.0000089438     1     8    11     7
 -0.0001026858     1     8    11    12
 0.0005392560     1     8    11    13
 -0.0000000475     1     8    12     1
 0.0401260424     1     8    12     2
 0.0000000017     1     8    12     3
 -0.0031143138     1     8    12     4
 0.0000000003     1     8    12     5
 -0.0013680048     1     8    12    10
 -0.0010199328     1     8    12    11
 0.0000002494     1     8    13     1
 -0.2107223456     1     8    13     2
 -0.0000000091     1     8    13     3
 0.0163548528     1     8    13     4
 -0.0000000017     1     8    13     5
 0.0071840919     1     8    13    10
 0.0053561880     1     8    13    11
 -0.0000083749     1     9     2     6
 -0.0001071665     1     9     2     7
 -0.0001204693     1     9     2    12
 -0.0000229399     1     9     2    13
 -0.0000000002     1     9     3     6
 -0.0000000013     1     9     3     7
 0.0000000036     1     9     3    12
 0.0000000007     1     9     3    13
 -0.0000116646     1     9     4     6
 -0.0001492631     1     9     4     7
 -0.0065455504     1     9     4    12
 -0.0012464128     1     9     4    13
 0.0000000005     1     9     5     7
 0.0000000008     1     9     5    12
 0.0000000002     1     9     5    13
 0.0000000247     1     9     6     1
 -0.0209373265     1     9     6     2
 -0.0000000009     1     9     6     3
 0.0012989339     1     9     6     4
 0.0006919564     1     9     6    10
 0.0001218556     1     9     6    11
 0.0000003170     1     9     7     1
 -0.2679189611     1     9     7     2
 -0.0000000109     1     9     7     3
 0.0166214645     1     9     7     4
 -0.0000000002     1     9     7     5
 0.0088544367     1     9     7    10
 0.0015592929     1     9     7    11
 -0.5841627342     1     9     9     1
 -0.0000000002     1     9     9     2
 0.0174248678     1     9     9     3
 -0.0000000118     1     9     9     4
 0.0060133652     1     9     9     5
 -0.0000000032     1     9     9    10
 -0.0000000037     1     9     9    11
 -0.0000014744     1     9    10     6
 -0.0000188661     1     9    10     7
 -0.0021936124     1     9    10    12
 -0.0004177107     1     9    10    13
 -0.0000089438     1     9    11     6
 -0.0001144474     1     9    11     7
 0.0005392560     1     9    11    12
 0.0001026858     1     9    11    13
 0.0000002494     1     9    12     1
 -0.2107223456     1     9    12     2
 -0.0000000091     1     9    12     3
 0.0163548528     1     9    12     4
 -0.0000000017     1     9    12     5
 0.0071840919     1     9    12    10
 0.0053561880     1     9    12    11
 0.0000000475     1     9    13     1
 -0.0401260424     1     9    13     2
 -0.0000000017     1     9    13     3
 0.0031143138     1     9    13     4
 -0.0000000003     1     9    13     5
 0.0013680048     1     9    13    10
 0.0010199328     1     9    13    11
 -0.0059054266     1    10     2     1
 -0.0000000035     1    10     2     2
 -0.0000554059     1    10     2     3
 0.0002449749     1    10     2     5
 0.0000001297     1    10     3     1
 -0.1096966706     1    10     3     2
 -0.0000000046     1    10     3     3
 0.0001022341     1    10     3     4
 0.0000000020     1    10     3     5
 0.0052668368     1    10     3    11
 -0.0506448320     1    10     4     1
 -0.0000000001     1    10     4     2
 -0.0064102825     1    10     4     3
 0.0000000016     1    10     4     4
 -0.0026493092     1    10     4     5
 -0.0000000021     1    10     4    11
 -0.0000003017     1    10     5     1
 0.2551209868     1    10     5     2
 0.0000000121     1    10     5     3
 -0.0200794767     1    10     5     4
 0.0000000018     1    10     5     5
 -0.0069084597     1    10     5    11
 0.0000000013     1    10     6     6
 -0.0088544367     1    10     6     8
 -0.0006919564     1    10     6     9
 -0.0000000005     1    10     6    12
 0.0000000047     1    10     6    13
 0.0000000013     1    10     7     7
 0.0006919564     1    10     7     8
 -0.0088544367     1    10     7     9
 0.0000000047     1    10     7    12
 0.0000000005     1    10     7    13
 -0.0086277885     1    10     8     6
 0.0006742443     1    10     8     7
 0.0000000032     1    10     8     8
 0.0018046178     1    10     8    12
 -0.0094769700     1    10     8    13
 -0.0006742443     1    10     9     6
 -0.0086277885     1    10     9     7
 0.0000000032     1    10     9     9
 -0.0094769700     1    10     9    12
 -0.0018046178     1    10     9    13
 -0.6303937492     1    10    10     1
 -0.0000000002     1    10    10     2
 0.0161673125     1    10    10     3
 -0.0000000131     1    10    10     4
 0.0144058478     1    10    10     5
 -0.0000000073     1    10    10    11
 0.1897403692     1    10    11     1
 -0.0129940767     1    10    11     3
 0.0000000095     1    10    11     4
 -0.0097682340     1    10    11     5
 0.0000000079     1    10    11    11
 -0.0000000003     1    10    12     6
 0.0000000034     1    10    12     7
 0.0013680048     1    10    12     8
 -0.0071840919     1    10    12     9
 0.0000000034     1    10    12    12
 0.0000000034     1    10    13     6
 0.0000000003     1    10    13     7
 -0.0071840919     1    10    13     8
 -0.0013680048     1    10    13     9
 0.0000000034     1    10    13    13
 0.0060393584     1    11     2     1
 0.0000000036     1    11     2     2
 0.0000462184     1    11     2     3
 -0.0002449278     1    11     2     5
 0.0000000307     1    11     3     1
 -0.0257622201     1    11     3     2
 0.0000000052     1    11     3     3
 0.0008350112     1    11     3     4
 -0.0000000049     1    11     3     5
 -0.0052668368     1    11     3    10
 -0.1074059061     1    11     4     1
 0.0000000002     1    11     4     2
 0.0060850693     1    11     4     3
 -0.0000000022     1    11     4     4
 0.0065022282     1    11     4     5
 0.0000000021     1    11     4    10
 0.0000002124     1    11     5     1
 -0.1794324115     1    11     5     2
 -0.0000000132     1    11     5     3
 0.0195905021     1    11     5     4
 0.0000000020     1    11     5     5
 0.0069084597     1    11     5    10
 0.0000000045     1    11     6     6
 -0.0015592929     1    11     6     8
 -0.0001218556     1    11     6     9
 -0.0000000003     1    11     6    12
 0.0000000031     1    11     6    13
 0.0000000045     1    11     7     7
 0.0001218556     1    11     7     8
 -0.0015592929     1    11     7     9
 0.0000000031     1    11     7    12
 0.0000000003     1    11     7    13
 -0.0017011244     1    11     8     6
 0.0001329394     1    11     8     7
 0.0000000037     1    11     8     8
 0.0009282809     1    11     8    12
 -0.0048748771     1    11     8    13
 -0.0001329394     1    11     9     6
 -0.0017011244     1    11     9     7
 0.0000000037     1    11     9     9
 -0.0048748771     1    11     9    12
 -0.0009282809     1    11     9    13
 0.1897403692     1    11    10     1
 -0.0183589531     1    11    10     3
 0.0000000118     1    11    10     4
 -0.0030309607     1    11    10     5
 0.0000000073     1    11    10    10
 -0.5107689999     1    11    11     1
 0.0000000006     1    11    11     2
 0.0162034800     1    11    11     3
 -0.0000000087     1    11    11     4
 -0.0024152162     1    11    11     5
 -0.0000000079     1    11    11    10
 -0.0000000004     1    11    12     6
 0.0000000035     1    11    12     7
 0.0010199328     1    11    12     8
 -0.0053561880     1    11    12     9
 0.0000000061     1    11    12    12
 0.0000000035     1    11    13     6
 0.0000000004     1    11    13     7
 -0.0053561880     1    11    13     8
 -0.0010199328     1    11    13     9
 0.0000000061     1    11    13    13
 -0.0000229399     1    12     2     8
 0.0001204693     1    12     2     9
 -0.0009249080     1    12     3     6
 0.0083605863     1    12     3     7
 0.0000000007     1    12     3     8
 -0.0000000036     1    12     3     9
 0.0000000004     1    12     4     6
 -0.0000000037     1    12     4     7
 -0.0012464128     1    12     4     8
 0.0065455504     1    12     4     9
 -0.0000189606     1    12     5     6
 0.0001713922     1    12     5     7
 0.0000000002     1    12     5     8
 -0.0000000008     1    12     5     9
 0.0211202960     1    12     6     1
 -0.0024380170     1    12     6     3
 0.0000000014     1    12     6     4
 -0.0004281333     1    12     6     5
 0.0000000005     1    12     6    10
 0.0000000003     1    12     6    11
 -0.1909142006     1    12     7     1
 0.0000000003     1    12     7     2
 0.0220381413     1    12     7     3
 -0.0000000126     1    12     7     4
 0.0038700555     1    12     7     5
 -0.0000000047     1    12     7    10
 -0.0000000031     1    12     7    11
 -0.0000000475     1    12     8     1
 0.0401032333     1    12     8     2
 0.0000000024     1    12     8     3
 -0.0044342630     1    12     8     4
 0.0000000005     1    12     8     5
 -0.0018046178     1    12     8    10
 -0.0009282809     1    12     8    11
 0.0000002494     1    12     9     1
 -0.2106025638     1    12     9     2
 -0.0000000127     1    12     9     3
 0.0232865797     1    12     9     4
 -0.0000000025     1    12     9     5
 0.0094769700     1    12     9    10
 0.0048748771     1    12     9    11
 0.0000000002     1    12    10     6
 -0.0000000012     1    12    10     7
 -0.0004177107     1    12    10     8
 0.0021936124     1    12    10     9
 -0.0000000001     1    12    11     6
 0.0000000004     1    12    11     7
 0.0001026858     1    12    11     8
 -0.0005392560     1    12    11     9
 -0.5746559663     1    12    12     1
 0.0000000007     1    12    12     2
 0.0190174847     1    12    12     3
 -0.0000000129     1    12    12     4
 0.0072515922     1    12    12     5
 -0.0000000034     1    12    12    10
 -0.0000000061     1    12    12    11
 0.0001204693     1    13     2     8
 0.0000229399     1    13     2     9
 0.0083605863     1    13     3     6
 0.0009249080     1    13     3     7
 -0.0000000036     1    13     3     8
 -0.0000000007     1    13     3     9
 -0.0000000037     1    13     4     6
 -0.0000000004     1    13     4     7
 0.0065455504     1    13     4     8
 0.0012464128     1    13     4     9
 0.0001713922     1    13     5     6
 0.0000189606     1    13     5     7
 -0.0000000008     1    13     5     8
 -0.0000000002     1    13     5     9
 -0.1909142006     1    13     6     1
 0.0000000003     1    13     6     2
 0.0220381413     1    13     6     3
 -0.0000000126     1    13     6     4
 0.0038700555     1    13     6     5
 -0.0000000047     1    13     6    10
 -0.0000000031     1    13     6    11
 -0.0211202960     1    13     7     1
 0.0024380170     1    13     7     3
 -0.0000000014     1    13     7     4
 0.0004281333     1    13     7     5
 -0.0000000005     1    13     7    10
 -0.0000000003     1    13     7    11
 0.0000002494     1    13     8     1
 -0.2106025638     1    13     8     2
 -0.0000000127     1    13     8     3
 0.0232865797     1    13     8     4
 -0.0000000025     1    13     8     5
 0.0094769700     1    13     8    10
 0.0048748771     1    13     8    11
 0.0000000475     1    13     9     1
 -0.0401032333     1    13     9     2
 -0.0000000024     1    13     9     3
 0.0044342630     1    13     9     4
 -0.0000000005     1    13     9     5
 0.0018046178     1    13     9    10
 0.0009282809     1    13     9    11
 -0.0000000012     1    13    10     6
 -0.0000000002     1    13    10     7
 0.0021936124     1    13    10     8
 0.0004177107     1    13    10     9
 0.0000000004     1    13    11     6
 0.0000000001     1    13    11     7
 -0.0005392560     1    13    11     8
 -0.0001026858     1    13    11     9
 -0.5746559663     1    13    13     1
 0.0000000007     1    13    13     2
 0.0190174847     1    13    13     3
 -0.0000000129     1    13    13     4
 0.0072515922     1    13    13     5
 -0.0000000034     1    13    13    10
 -0.0000000061     1    13    13    11
 -0.3022557699     2     1     1     2
 -0.0000000008     2     1     1     3
 0.0013598961     2     1     1     4
 0.0000000037     2     1     1     5
 -0.0059054266     2     1     1    10