&FCI NORB= 19,NELEC= 14,MS2=0,
 ORBSYM=1,1,1,1,1,1,1,1,1,1,1,1,1,1,1,1,1,1,1
 ISYM=1,
&END
 0.6051344115     1     1     2     2
 0.0139984542     1     1     2     6
 0.0052773499     1     1     2    10
 -0.0209718492     1     1     2    17
 0.9245197082     1     1     3     3
 -0.1320954454     1     1     3     7
 0.0979505931     1     1     3    11
 0.1080105579     1     1     3    14
 0.7522668710     1     1     4     4
 -0.1826138652     1     1     4    12
 0.1311325947     1     1     4    13
 0.7522668710     1     1     5     5
 -0.1311325947     1     1     5    12
 -0.1826138652     1     1     5    13
 0.0139984542     1     1     6     2
 0.6555114188     1     1     6     6
 0.1400181697     1     1     6    10
 -0.1372801941     1     1     6    17
 -0.1320954454     1     1     7     3
 0.7060087249     1     1     7     7
 -0.1457534357     1     1     7    11
 0.1569913976     1     1     7    14
 0.5743982842     1     1     8     8
 0.1778576281     1     1     8    15
 0.1859411323     1     1     8    16
 0.5743982842     1     1     9     9
 -0.1859411323     1     1     9    15
 0.1778576281     1     1     9    16
 0.0052773499     1     1    10     2
 0.1400181697     1     1    10     6
 0.3741303108     1     1    10    10
 -0.0456136750     1     1    10    17
 0.0979505931     1     1    11     3
 -0.1457534357     1     1    11     7
 0.4565399060     1     1    11    11
 0.0049961416     1     1    11    14
 -0.1826138652     1     1    12     4
 -0.1311325947     1     1    12     5
 0.5555269211     1     1    12    12
 0.1311325947     1     1    13     4
 -0.1826138652     1     1    13     5
 0.5555269211     1     1    13    13
 0.1080105579     1     1    14     3
 0.1569913976     1     1    14     7
 0.0049961416     1     1    14    11
 0.5829202758     1     1    14    14
 0.1778576281     1     1    15     8
 -0.1859411323     1     1    15     9
 0.6661248383     1     1    15    15
 0.1859411323     1     1    16     8
 0.1778576281     1     1    16     9
 0.6661248383     1     1    16    16
 -0.0209718492     1     1    17     2
 -0.1372801941     1     1    17     6
 -0.0456136750     1     1    17    10
 0.6195450418     1     1    17    17
 0.6389972290     1     1    18    18
 0.6389972290     1     1    19    19
 -0.6051344115     1     2     2     1
 -0.0220106307     1     2     2     3
 0.0278161220     1     2     2     7
 -0.0159417605     1     2     2    11
 0.0115837224     1     2     2    14
 -0.0992505463     1     2     3     6
 -0.0560328381     1     2     3    10
 -0.0560714577     1     2     3    17
 -0.0558606907     1     2     4     8
 0.1657972662     1     2     4     9
 -0.1690534676     1     2     4    15
 0.0792167981     1     2     4    16
 -0.1657972662     1     2     5     8
 -0.0558606907     1     2     5     9
 -0.0792167981     1     2     5    15
 -0.1690534676     1     2     5    16
 -0.0139984542     1     2     6     1
 -0.1002851969     1     2     6     3
 -0.2246773600     1     2     6     7
 0.0213360051     1     2     6    11
 -0.1466723555     1     2     6    14
 -0.2259773794     1     2     7     6
 -0.0484357519     1     2     7    10
 0.1569683126     1     2     7    17
 -0.0555717439     1     2     8     4
 -0.1649396579     1     2     8     5
 0.0587989018     1     2     8    12
 0.0422491002     1     2     8    13
 0.1649396579     1     2     9     4
 -0.0555717439     1     2     9     5
 -0.0422491002     1     2     9    12
 0.0587989018     1     2     9    13
 -0.0052773499     1     2    10     1
 -0.0563195764     1     2    10     3
 -0.0479661372     1     2    10     7
 0.0666484256     1     2    10    11
 -0.0963659685     1     2    10    14
 0.0220938491     1     2    11     6
 0.0669281682     1     2    11    10
 -0.0548253404     1     2    11    17
 0.0594171882     1     2    12     8
 -0.0426933610     1     2    12     9
 0.1747467415     1     2    12    15
 0.0326218371     1     2    12    16
 0.0426933610     1     2    13     8
 0.0594171882     1     2    13     9
 -0.0326218371     1     2    13    15
 0.1747467415     1     2    13    16
 -0.1472251701     1     2    14     6
 -0.0965771598     1     2    14    10
 0.1661170116     1     2    14    17
 -0.1678298757     1     2    15     4
 -0.0786434350     1     2    15     5
 0.1736113816     1     2    15    12
 -0.0324098873     1     2    15    13
 0.0786434350     1     2    16     4
 -0.1678298757     1     2    16     5
 0.0324098873     1     2    16    12
 0.1736113816     1     2    16    13
 0.0209718492     1     2    17     1
 -0.0546955045     1     2    17     3
 0.1551616493     1     2    17     7
 -0.0537463708     1     2    17    11
 0.1654226842     1     2    17    14
 0.0220106307     1     3     2     2
 0.0010100754     1     3     2     6
 0.0003382766     1     3     2    10
 -0.0014245218     1     3     2    17
 -0.9245197082     1     3     3     1
 0.0302091114     1     3     3     7
 -0.0167180944     1     3     3    11
 0.0232645488     1     3     3    14
 -0.0203725197     1     3     4     4
 0.0171390654     1     3     4    12
 -0.0123073356     1     3     4    13
 -0.0203725197     1     3     5     5
 0.0123073356     1     3     5    12
 0.0171390654     1     3     5    13
 0.1002851969     1     3     6     2
 -0.0126966332     1     3     6     6
 -0.0039297522     1     3     6    10
 0.0144020956     1     3     6    17
 0.1320954454     1     3     7     1
 -0.0269807599     1     3     7     7
 0.0098734130     1     3     7    11
 -0.0224475216     1     3     7    14
 -0.0108364434     1     3     8     8
 -0.0112392715     1     3     8    15
 -0.0117500884     1     3     8    16
 -0.0108364434     1     3     9     9
 0.0117500884     1     3     9    15
 -0.0112392715     1     3     9    16
 0.0563195764     1     3    10     2
 -0.0032183636     1     3    10     6
 -0.0028626561     1     3    10    10
 0.0051311427     1     3    10    17
 -0.0979505931     1     3    11     1
 0.0107674539     1     3    11     7
 -0.0053415597     1     3    11    11
 0.0127055470     1     3    11    14
 0.0105484901     1     3    12     4
 0.0075747309     1     3    12     5
 -0.0117181326     1     3    12    12
 -0.0075747309     1     3    13     4
 0.0105484901     1     3    13     5
 -0.0117181326     1     3    13    13
 -0.1080105579     1     3    14     1
 -0.0080401335     1     3    14     7
 0.0041390280     1     3    14    11
 -0.0064675068     1     3    14    14
 -0.0094239967     1     3    15     8
 0.0098523107     1     3    15     9
 -0.0213647801     1     3    15    15
 -0.0098523107     1     3    16     8
 -0.0094239967     1     3    16     9
 -0.0213647801     1     3    16    16
 0.0546955045     1     3    17     2
 0.0149346048     1     3    17     6
 0.0066953679     1     3    17    10
 -0.0154195033     1     3    17    17
 0.0028629916     1     3    18    18
 0.0028629916     1     3    19    19
 -0.0002880000     1     4     2     8
 0.0008547980     1     4     2     9
 -0.0012327662     1     4     2    15
 0.0005776621     1     4     2    16
 0.0064755729     1     4     3    12
 -0.0046500230     1     4     3    13
 -0.7522668710     1     4     4     1
 0.0203725197     1     4     4     3
 0.0190494312     1     4     4     7
 -0.0087262564     1     4     4    11
 0.0154666554     1     4     4    14
 0.0111235162     1     4     4    18
 0.0027576784     1     4     4    19
 -0.0027576784     1     4     5    18
 0.0111235162     1     4     5    19
 0.0015937621     1     4     6     8
 -0.0047303638     1     4     6     9
 -0.0015597933     1     4     6    15
 0.0007309039     1     4     6    16
 0.0049037801     1     4     7    12
 -0.0035213395     1     4     7    13
 0.0555717439     1     4     8     2
 0.0041355862     1     4     8     6
 0.0020138310     1     4     8    10
 0.0023005321     1     4     8    17
 -0.1649396579     1     4     9     2
 -0.0122746225     1     4     9     6
 -0.0059771491     1     4     9    10
 -0.0068280921     1     4     9    17
 0.0004154542     1     4    10     8
 -0.0012330883     1     4    10     9
 0.0008796169     1     4    10    15
 -0.0004121799     1     4    10    16
 -0.0040036687     1     4    11    12
 0.0028749814     1     4    11    13
 0.1826138652     1     4    12     1
 -0.0105484901     1     4    12     3
 -0.0053676743     1     4    12     7
 0.0004948603     1     4    12    11
 -0.0145013491     1     4    12    14
 -0.0017375049     1     4    12    18
 -0.0020419470     1     4    12    19
 -0.1311325947     1     4    13     1
 0.0075747309     1     4    13     3
 0.0038544558     1     4    13     7
 -0.0003553526     1     4    13    11
 0.0104132265     1     4    13    14
 0.0020419470     1     4    13    18
 -0.0017375049     1     4    13    19
 -0.0043438150     1     4    14    12
 0.0031192359     1     4    14    13
 0.1678298757     1     4    15     2
 0.0125495024     1     4    15     6
 0.0088960785     1     4    15    10
 -0.0018673259     1     4    15    17
 -0.0786434350     1     4    16     2
 -0.0058805739     1     4    16     6
 -0.0041686153     1     4    16    10
 0.0008750106     1     4    16    17
 0.0008001113     1     4    17     8
 -0.0023747695     1     4    17     9
 -0.0039749171     1     4    17    15
 0.0018626072     1     4    17    16
 0.0052698772     1     4    18    12
 -0.0061932543     1     4    18    13
 0.0061932543     1     4    19    12
 0.0052698772     1     4    19    13
 -0.0008547980     1     5     2     8
 -0.0002880000     1     5     2     9
 -0.0005776621     1     5     2    15
 -0.0012327662     1     5     2    16
 0.0046500230     1     5     3    12
 0.0064755729     1     5     3    13
 -0.0027576784     1     5     4    18
 0.0111235162     1     5     4    19
 -0.7522668710     1     5     5     1
 0.0203725197     1     5     5     3
 0.0190494312     1     5     5     7
 -0.0087262564     1     5     5    11
 0.0154666554     1     5     5    14
 -0.0111235162     1     5     5    18
 -0.0027576784     1     5     5    19
 0.0047303638     1     5     6     8
 0.0015937621     1     5     6     9
 -0.0007309039     1     5     6    15
 -0.0015597933     1     5     6    16
 0.0035213395     1     5     7    12
 0.0049037801     1     5     7    13
 0.1649396579     1     5     8     2
 0.0122746225     1     5     8     6
 0.0059771491     1     5     8    10
 0.0068280921     1     5     8    17
 0.0555717439     1     5     9     2
 0.0041355862     1     5     9     6
 0.0020138310     1     5     9    10
 0.0023005321     1     5     9    17
 0.0012330883     1     5    10     8
 0.0004154542     1     5    10     9
 0.0004121799     1     5    10    15
 0.0008796169     1     5    10    16
 -0.0028749814     1     5    11    12
 -0.0040036687     1     5    11    13
 0.1311325947     1     5    12     1
 -0.0075747309     1     5    12     3
 -0.0038544558     1     5    12     7
 0.0003553526     1     5    12    11
 -0.0104132265     1     5    12    14
 0.0020419470     1     5    12    18
 -0.0017375049     1     5    12    19
 0.1826138652     1     5    13     1
 -0.0105484901     1     5    13     3
 -0.0053676743     1     5    13     7
 0.0004948603     1     5    13    11
 -0.0145013491     1     5    13    14
 0.0017375049     1     5    13    18
 0.0020419470     1     5    13    19
 -0.0031192359     1     5    14    12
 -0.0043438150     1     5    14    13
 0.0786434350     1     5    15     2
 0.0058805739     1     5    15     6
 0.0041686153     1     5    15    10
 -0.0008750106     1     5    15    17
 0.1678298757     1     5    16     2
 0.0125495024     1     5    16     6
 0.0088960785     1     5    16    10
 -0.0018673259     1     5    16    17
 0.0023747695     1     5    17     8
 0.0008001113     1     5    17     9
 -0.0018626072     1     5    17    15
 -0.0039749171     1     5    17    16
 -0.0061932543     1     5    18    12
 -0.0052698772     1     5    18    13
 0.0052698772     1     5    19    12
 -0.0061932543     1     5    19    13
 -0.0139984542     1     6     2     1
 -0.0010100754     1     6     2     3
 0.0012908124     1     6     2     7
 -0.0007682430     1     6     2    11
 0.0005335842     1     6     2    14
 0.0992505463     1     6     3     2
 -0.0007975883     1     6     3    10
 -0.0008374830     1     6     3    17
 -0.0026202119     1     6     4     8
 0.0077769171     1     6     4     9
 -0.0143345975     1     6     4    15
 0.0067170520     1     6     4    16
 -0.0077769171     1     6     5     8
 -0.0026202119     1     6     5     9
 -0.0067170520     1     6     5    15
 -0.0143345975     1     6     5    16
 -0.6555114188     1     6     6     1
 0.0126966332     1     6     6     3
 -0.0007580855     1     6     6     7
 0.0059579238     1     6     6    11
 0.0013816105     1     6     6    14
 0.2259773794     1     6     7     2
 -0.0002929891     1     6     7    10
 0.0159573118     1     6     7    17
 -0.0041355862     1     6     8     4
 -0.0122746225     1     6     8     5
 0.0125901134     1     6     8    12
 0.0090464438     1     6     8    13
 0.0122746225     1     6     9     4
 -0.0041355862     1     6     9     5
 -0.0090464438     1     6     9    12
 0.0125901134     1     6     9    13
 -0.1400181697     1     6    10     1
 0.0032183636     1     6    10     3
 0.0003336490     1     6    10     7
 -0.0016814983     1     6    10    11
 0.0027393993     1     6    10    14
 -0.0220938491     1     6    11     2
 -0.0033305418     1     6    11    10
 -0.0028651393     1     6    11    17
 0.0060263175     1     6    12     8
 -0.0043301232     1     6    12     9
 0.0087678870     1     6    12    15
 0.0016367949     1     6    12    16
 0.0043301232     1     6    13     8
 0.0060263175     1     6    13     9
 -0.0016367949     1     6    13    15
 0.0087678870     1     6    13    16
 0.1472251701     1     6    14     2
 0.0017936592     1     6    14    10
 0.0057950526     1     6    14    17
 -0.0125495024     1     6    15     4
 -0.0058805739     1     6    15     5
 0.0129448345     1     6    15    12
 -0.0024165503     1     6    15    13
 0.0058805739     1     6    16     4
 -0.0125495024     1     6    16     5
 0.0024165503     1     6    16    12
 0.0129448345     1     6    16    13
 0.1372801941     1     6    17     1
 -0.0149346048     1     6    17     3
 0.0075055751     1     6    17     7
 -0.0077218275     1     6    17    11
 -0.0019338437     1     6    17    14
 -0.0278161220     1     7     2     2
 -0.0012908124     1     7     2     6
 -0.0004828582     1     7     2    10
 0.0018424227     1     7     2    17
 0.1320954454     1     7     3     1
 -0.0302091114     1     7     3     3
 -0.0008120884     1     7     3    11
 -0.0142075129     1     7     3    14
 -0.0190494312     1     7     4     4
 0.0102607482     1     7     4    12
 -0.0073681072     1     7     4    13
 -0.0190494312     1     7     5     5
 0.0073681072     1     7     5    12
 0.0102607482     1     7     5    13
 0.2246773600     1     7     6     2
 0.0007580855     1     7     6     6
 -0.0006454503     1     7     6    10
 0.0082048330     1     7     6    17
 -0.7060087249     1     7     7     1
 0.0269807599     1     7     7     3
 0.0081147703     1     7     7    11
 0.0126298633     1     7     7    14
 -0.0071798020     1     7     8     8
 -0.0076526557     1     7     8    15
 -0.0080004634     1     7     8    16
 -0.0071798020     1     7     9     9
 0.0080004634     1     7     9    15
 -0.0076526557     1     7     9    16
 0.0479661372     1     7    10     2
 -0.0003336490     1     7    10     6
 0.0019351940     1     7    10    10
 -0.0002445116     1     7    10    17
 0.1457534357     1     7    11     1
 -0.0107674539     1     7    11     3
 -0.0021875916     1     7    11    11
 -0.0106983012     1     7    11    14
 0.0053676743     1     7    12     4
 0.0038544558     1     7    12     5
 -0.0070231837     1     7    12    12
 -0.0038544558     1     7    13     4
 0.0053676743     1     7    13     5
 -0.0070231837     1     7    13    13
 -0.1569913976     1     7    14     1
 0.0080401335     1     7    14     3
 0.0009179416     1     7    14    11
 0.0014099401     1     7    14    14
 -0.0051556106     1     7    15     8
 0.0053899296     1     7    15     9
 -0.0112701288     1     7    15    15
 -0.0053899296     1     7    16     8
 -0.0051556106     1     7    16     9
 -0.0112701288     1     7    16    16
 -0.1551616493     1     7    17     2
 -0.0075055751     1     7    17     6
 -0.0050192959     1     7    17    10
 -0.0053461455     1     7    17    17
 -0.0096664927     1     7    18    18
 -0.0096664927     1     7    19    19
 0.0002880000     1     8     2     4
 0.0008547980     1     8     2     5
 -0.0006325256     1     8     2    12
 -0.0004544921     1     8     2    13
 -0.0017223339     1     8     3    15
 -0.0018006128     1     8     3    16
 0.0558606907     1     8     4     2
 0.0026202119     1     8     4     6
 0.0015712621     1     8     4    10
 0.0015728933     1     8     4    17
 0.1657972662     1     8     5     2
 0.0077769171     1     8     5     6
 0.0046635829     1     8     5    10
 0.0046684240     1     8     5    17
 -0.0015937621     1     8     6     4
 -0.0047303638     1     8     6     5
 0.0065904426     1     8     6    12
 0.0047354672     1     8     6    13
 -0.0024425678     1     8     7    15
 -0.0025535808     1     8     7    16
 -0.5743982842     1     8     8     1
 0.0108364434     1     8     8     3
 0.0071798020     1     8     8     7
 -0.0007268653     1     8     8    11
 0.0073837796     1     8     8    14
 -0.0034796755     1     8     8    18
 0.0014997268     1     8     8    19
 -0.0014997268     1     8     9    18
 -0.0034796755     1     8     9    19
 -0.0004154542     1     8    10     4
 -0.0012330883     1     8    10     5
 0.0018100451     1     8    10    12
 0.0013005818     1     8    10    13
 0.0000557189     1     8    11    15
 0.0000582513     1     8    11    16
 -0.0594171882     1     8    12     2
 -0.0060263175     1     8    12     6
 -0.0038678810     1     8    12    10
 0.0027119145     1     8    12    17
 -0.0426933610     1     8    13     2
 -0.0043301232     1     8    13     6
 -0.0027792100     1     8    13    10
 0.0019486069     1     8    13    17
 0.0007403722     1     8    14    15
 0.0007740216     1     8    14    16
 -0.1778576281     1     8    15     1
 0.0094239967     1     8    15     3
 0.0051556106     1     8    15     7
 -0.0008826335     1     8    15    11
 0.0088051121     1     8    15    14
 -0.0011668243     1     8    15    18
 0.0031356103     1     8    15    19
 -0.1859411323     1     8    16     1
 0.0098523107     1     8    16     3
 0.0053899296     1     8    16     7
 -0.0009227485     1     8    16    11
 0.0092052982     1     8    16    14
 -0.0031356103     1     8    16    18
 -0.0011668243     1     8    16    19
 -0.0008001113     1     8    17     4
 -0.0023747695     1     8    17     5
 0.0031445538     1     8    17    12
 0.0022594736     1     8    17    13
 0.0010976950     1     8    18    15
 0.0029498388     1     8    18    16
 -0.0029498388     1     8    19    15
 0.0010976950     1     8    19    16
 -0.0008547980     1     9     2     4
 0.0002880000     1     9     2     5
 0.0004544921     1     9     2    12
 -0.0006325256     1     9     2    13
 0.0018006128     1     9     3    15
 -0.0017223339     1     9     3    16
 -0.1657972662     1     9     4     2
 -0.0077769171     1     9     4     6
 -0.0046635829     1     9     4    10
 -0.0046684240     1     9     4    17
 0.0558606907     1     9     5     2
 0.0026202119     1     9     5     6
 0.0015712621     1     9     5    10
 0.0015728933     1     9     5    17
 0.0047303638     1     9     6     4
 -0.0015937621     1     9     6     5
 -0.0047354672     1     9     6    12
 0.0065904426     1     9     6    13
 0.0025535808     1     9     7    15
 -0.0024425678     1     9     7    16
 -0.0014997268     1     9     8    18
 -0.0034796755     1     9     8    19
 -0.5743982842     1     9     9     1
 0.0108364434     1     9     9     3
 0.0071798020     1     9     9     7
 -0.0007268653     1     9     9    11
 0.0073837796     1     9     9    14
 0.0034796755     1     9     9    18
 -0.0014997268     1     9     9    19
 0.0012330883     1     9    10     4
 -0.0004154542     1     9    10     5
 -0.0013005818     1     9    10    12
 0.0018100451     1     9    10    13
 -0.0000582513     1     9    11    15
 0.0000557189     1     9    11    16
 0.0426933610     1     9    12     2
 0.0043301232     1     9    12     6
 0.0027792100     1     9    12    10
 -0.0019486069     1     9    12    17
 -0.0594171882     1     9    13     2
 -0.0060263175     1     9    13     6
 -0.0038678810     1     9    13    10
 0.0027119145     1     9    13    17
 -0.0007740216     1     9    14    15
 0.0007403722     1     9    14    16
 0.1859411323     1     9    15     1
 -0.0098523107     1     9    15     3
 -0.0053899296     1     9    15     7
 0.0009227485     1     9    15    11
 -0.0092052982     1     9    15    14
 -0.0031356103     1     9    15    18
 -0.0011668243     1     9    15    19
 -0.1778576281     1     9    16     1
 0.0094239967     1     9    16     3
 0.0051556106     1     9    16     7
 -0.0008826335     1     9    16    11
 0.0088051121     1     9    16    14
 0.0011668243     1     9    16    18
 -0.0031356103     1     9    16    19
 0.0023747695     1     9    17     4
 -0.0008001113     1     9    17     5
 -0.0022594736     1     9    17    12
 0.0031445538     1     9    17    13
 0.0029498388     1     9    18    15
 -0.0010976950     1     9    18    16
 0.0010976950     1     9    19    15
 0.0029498388     1     9    19    16
 -0.0052773499     1    10     2     1
 -0.0003382766     1    10     2     3
 0.0004828582     1    10     2     7
 -0.0002863548     1    10     2    11
 0.0002307242     1    10     2    14
 0.0560328381     1    10     3     2
 0.0007975883     1    10     3     6
 -0.0017003591     1    10     3    17
 -0.0015712621     1    10     4     8
 0.0046635829     1    10     4     9
 -0.0079693841     1    10     4    15
 0.0037343753     1    10     4    16
 -0.0046635829     1    10     5     8
 -0.0015712621     1    10     5     9
 -0.0037343753     1    10     5    15
 -0.0079693841     1    10     5    16
 -0.1400181697     1    10     6     1
 0.0039297522     1    10     6     3
 0.0006454503     1    10     6     7
 0.0016553624     1    10     6    11
 0.0010449957     1    10     6    14
 0.0484357519     1    10     7     2
 0.0002929891     1    10     7     6
 0.0049785025     1    10     7    17
 -0.0020138310     1    10     8     4
 -0.0059771491     1    10     8     5
 0.0056757688     1    10     8    12
 0.0040782415     1    10     8    13
 0.0059771491     1    10     9     4
 -0.0020138310     1    10     9     5
 -0.0040782415     1    10     9    12
 0.0056757688     1    10     9    13
 -0.3741303108     1    10    10     1
 0.0028626561     1    10    10     3
 -0.0019351940     1    10    10     7
 0.0005698217     1    10    10    11
 -0.0000682478     1    10    10    14
 -0.0669281682     1    10    11     2
 0.0033305418     1    10    11     6
 -0.0067854080     1    10    11    17
 0.0038678810     1    10    12     8
 -0.0027792100     1    10    12     9
 0.0064661165     1    10    12    15
 0.0012070989     1    10    12    16
 0.0027792100     1    10    13     8
 0.0038678810     1    10    13     9
 -0.0012070989     1    10    13    15
 0.0064661165     1    10    13    16
 0.0965771598     1    10    14     2
 -0.0017936592     1    10    14     6
 0.0053538638     1    10    14    17
 -0.0088960785     1    10    15     4
 -0.0041686153     1    10    15     5
 0.0088417519     1    10    15    12
 -0.0016505841     1    10    15    13
 0.0041686153     1    10    16     4
 -0.0088960785     1    10    16     5
 0.0016505841     1    10    16    12
 0.0088417519     1    10    16    13
 0.0456136750     1    10    17     1
 -0.0066953679     1    10    17     3
 0.0050192959     1    10    17     7
 -0.0039923058     1    10    17    11
 0.0006167214     1    10    17    14
 0.0159417605     1    11     2     2
 0.0007682430     1    11     2     6
 0.0002863548     1    11     2    10
 -0.0010989437     1    11     2    17
 -0.0979505931     1    11     3     1
 0.0167180944     1    11     3     3
 0.0008120884     1    11     3     7
 0.0086638657     1    11     3    14
 0.0087262564     1    11     4     4
 -0.0044809916     1    11     4    12
 0.0032177406     1    11     4    13
 0.0087262564     1    11     5     5
 -0.0032177406     1    11     5    12
 -0.0044809916     1    11     5    13
 -0.0213360051     1    11     6     2
 -0.0059579238     1    11     6     6
 -0.0016553624     1    11     6    10
 0.0048282725     1    11     6    17
 0.1457534357     1    11     7     1
 -0.0098734130     1    11     7     3
 -0.0081147703     1    11     7     7
 -0.0116887084     1    11     7    14
 0.0007268653     1    11     8     8
 0.0009354374     1    11     8    15
 0.0009779524     1    11     8    16
 0.0007268653     1    11     9     9
 -0.0009779524     1    11     9    15
 0.0009354374     1    11     9    16
 -0.0666484256     1    11    10     2
 0.0016814983     1    11    10     6
 -0.0005698217     1    11    10    10
 -0.0027742484     1    11    10    17
 -0.4565399060     1    11    11     1
 0.0053415597     1    11    11     3
 0.0021875916     1    11    11     7
 0.0071101884     1    11    11    14
 -0.0004948603     1    11    12     4
 -0.0003553526     1    11    12     5
 0.0009743370     1    11    12    12
 0.0003553526     1    11    13     4
 -0.0004948603     1    11    13     5
 0.0009743370     1    11    13    13
 -0.0049961416     1    11    14     1
 -0.0041390280     1    11    14     3
 -0.0009179416     1    11    14     7
 -0.0018580048     1    11    14    14
 0.0008826335     1    11    15     8
 -0.0009227485     1    11    15     9
 0.0018205034     1    11    15    15
 0.0009227485     1    11    16     8
 0.0008826335     1    11    16     9
 0.0018205034     1    11    16    16
 0.0537463708     1    11    17     2
 0.0077218275     1    11    17     6
 0.0039923058     1    11    17    10
 -0.0029976822     1    11    17    17
 0.0049584890     1    11    18    18
 0.0049584890     1    11    19    19
 0.0006325256     1    12     2     8
 -0.0004544921     1    12     2     9
 0.0011605252     1    12     2    15
 0.0002166476     1    12     2    16
 -0.0064755729     1    12     3     4
 -0.0046500230     1    12     3     5
 0.1826138652     1    12     4     1
 -0.0171390654     1    12     4     3
 -0.0102607482     1    12     4     7
 0.0044809916     1    12     4    11
 -0.0101347695     1    12     4    14
 -0.0070071302     1    12     4    18
 -0.0082349052     1    12     4    19
 0.1311325947     1    12     5     1
 -0.0123073356     1    12     5     3
 -0.0073681072     1    12     5     7
 0.0032177406     1    12     5    11
 -0.0072776435     1    12     5    14
 0.0082349052     1    12     5    18
 -0.0070071302     1    12     5    19
 -0.0065904426     1    12     6     8
 0.0047354672     1    12     6     9
 -0.0042444631     1    12     6    15
 -0.0007923592     1    12     6    16
 -0.0049037801     1    12     7     4
 -0.0035213395     1    12     7     5
 -0.0587989018     1    12     8     2
 -0.0125901134     1    12     8     6
 -0.0056757688     1    12     8    10
 -0.0004304879     1    12     8    17
 0.0422491002     1    12     9     2
 0.0090464438     1    12     9     6
 0.0040782415     1    12     9    10
 0.0003093209     1    12     9    17
 -0.0018100451     1    12    10     8
 0.0013005818     1    12    10     9
 -0.0023980181     1    12    10    15
 -0.0004476636     1    12    10    16
 0.0040036687     1    12    11     4
 0.0028749814     1    12    11     5
 -0.5555269211     1    12    12     1
 0.0117181326     1    12    12     3
 0.0070231837     1    12    12     7
 -0.0009743370     1    12    12    11
 0.0165013617     1    12    12    14
 0.0001806689     1    12    12    18
 0.0021914144     1    12    12    19
 -0.0021914144     1    12    13    18
 0.0001806689     1    12    13    19
 0.0043438150     1    12    14     4
 0.0031192359     1    12    14     5
 -0.1736113816     1    12    15     2
 -0.0129448345     1    12    15     6
 -0.0088417519     1    12    15    10
 0.0015718101     1    12    15    17
 -0.0324098873     1    12    16     2
 -0.0024165503     1    12    16     6
 -0.0016505841     1    12    16    10
 0.0002934266     1    12    16    17
 -0.0031445538     1    12    17     8
 0.0022594736     1    12    17     9
 0.0009929430     1    12    17    15
 0.0001853633     1    12    17    16
 -0.0052698772     1    12    18     4
 0.0061932543     1    12    18     5
 -0.0061932543     1    12    19     4
 -0.0052698772     1    12    19     5
 0.0004544921     1    13     2     8
 0.0006325256     1    13     2     9
 -0.0002166476     1    13     2    15
 0.0011605252     1    13     2    16
 0.0046500230     1    13     3     4
 -0.0064755729     1    13     3     5
 -0.1311325947     1    13     4     1
 0.0123073356     1    13     4     3
 0.0073681072     1    13     4     7
 -0.0032177406     1    13     4    11
 0.0072776435     1    13     4    14
 0.0082349052     1    13     4    18
 -0.0070071302     1    13     4    19
 0.1826138652     1    13     5     1
 -0.0171390654     1    13     5     3
 -0.0102607482     1    13     5     7
 0.0044809916     1    13     5    11
 -0.0101347695     1    13     5    14