&FCI NORB= 13,NELEC= 14,MS2=0,
 ORBSYM=1,1,1,1,1,1,1,1,1,1,1,1,1
 ISYM=1,
&END
 0.2014873052     1     1     2     2
 -0.0001276864     1     1     2     4
 -0.0000000001     1     1     2     5
 0.0026849733     1     1     2    10
 0.5539125016     1     1     3     3
 -0.0000000058     1     1     3     4
 -0.0000388019     1     1     3     5
 -0.0000000005     1     1     3    10
 0.0975701089     1     1     3    11
 -0.0001276864     1     1     4     2
 -0.0000000058     1     1     4     3
 0.5600396626     1     1     4     4
 -0.0000000010     1     1     4     5
 0.0295698418     1     1     4    10
 -0.0000000014     1     1     4    11
 -0.0000000001     1     1     5     2
 -0.0000388019     1     1     5     3
 -0.0000000010     1     1     5     4
 0.5297136945     1     1     5     5
 0.0000000050     1     1     5    10
 -0.1388772540     1     1     5    11
 0.5251976138     1     1     6     6
 0.0000000048     1     1     6     8
 -0.0000000017     1     1     6     9
 0.1903792425     1     1     6    12
 0.0246343386     1     1     6    13
 0.5251976138     1     1     7     7
 -0.0000000017     1     1     7     8
 -0.0000000048     1     1     7     9
 -0.0246343386     1     1     7    12
 0.1903792425     1     1     7    13
 0.0000000048     1     1     8     6
 -0.0000000017     1     1     8     7
 0.5365632368     1     1     8     8
 0.0000000033     1     1     8    12
 -0.0000000007     1     1     8    13
 -0.0000000017     1     1     9     6
 -0.0000000048     1     1     9     7
 0.5365632368     1     1     9     9
 -0.0000000007     1     1     9    12
 -0.0000000033     1     1     9    13
 0.0026849733     1     1    10     2
 -0.0000000005     1     1    10     3
 0.0295698418     1     1    10     4
 0.0000000050     1     1    10     5
 0.5600154931     1     1    10    10
 -0.0000000035     1     1    10    11
 0.0975701089     1     1    11     3
 -0.0000000014     1     1    11     4
 -0.1388772540     1     1    11     5
 -0.0000000035     1     1    11    10
 0.5466192803     1     1    11    11
 0.1903792425     1     1    12     6
 -0.0246343386     1     1    12     7
 0.0000000033     1     1    12     8
 -0.0000000007     1     1    12     9
 0.5207834563     1     1    12    12
 0.0246343386     1     1    13     6
 0.1903792425     1     1    13     7
 -0.0000000007     1     1    13     8
 -0.0000000033     1     1    13     9
 0.5207834563     1     1    13    13
 -0.2014873052     1     2     2     1
 -0.0001124721     1     2     2     3
 0.0025319540     1     2     2     5
 -0.0021527896     1     2     2    11
 0.3551195630     1     2     3     4
 0.0316309871     1     2     3    10
 0.0001276864     1     2     4     1
 0.3551374552     1     2     4     3
 0.0652523821     1     2     4     5
 0.0875235028     1     2     4    11
 0.0000000001     1     2     5     1
 0.0652533522     1     2     5     4
 -0.3041823917     1     2     5    10
 -0.2970400677     1     2     6     8
 0.1056456813     1     2     6     9
 0.1056456812     1     2     7     8
 0.2970400677     1     2     7     9
 -0.2970041310     1     2     8     6
 0.1056329000     1     2     8     7
 -0.2044730881     1     2     8    12
 0.0442296516     1     2     8    13
 0.1056329000     1     2     9     6
 0.2970041310     1     2     9     7
 0.0442296516     1     2     9    12
 0.2044730881     1     2     9    13
 -0.0026849733     1     2    10     1
 0.0316294489     1     2    10     3
 -0.3041149514     1     2    10     5
 0.2202201954     1     2    10    11
 0.0875470108     1     2    11     4
 0.2202863527     1     2    11    10
 -0.2045123965     1     2    12     8
 0.0442381544     1     2    12     9
 0.0442381544     1     2    13     8
 0.2045123965     1     2    13     9
 0.0001124721     1     3     2     2
 -0.0000101171     1     3     2     4
 0.0000003245     1     3     2    10
 -0.5539125016     1     3     3     1
 0.0016692783     1     3     3     5
 -0.0021261515     1     3     3    11
 0.0000000058     1     3     4     1
 -0.3551374552     1     3     4     2
 -0.0003224003     1     3     4     4
 0.0023272107     1     3     4    10
 0.0000388019     1     3     5     1
 -0.0178876465     1     3     5     5
 -0.0000000001     1     3     5    10
 0.0185486944     1     3     5    11
 -0.0180951690     1     3     6     6
 -0.0000000001     1     3     6     8
 -0.0219804434     1     3     6    12
 -0.0028441845     1     3     6    13
 -0.0180951690     1     3     7     7
 0.0000000001     1     3     7     9
 0.0028441845     1     3     7    12
 -0.0219804434     1     3     7    13
 -0.0000000001     1     3     8     6
 -0.0180471410     1     3     8     8
 -0.0000000001     1     3     8    12
 0.0000000001     1     3     9     7
 -0.0180471410     1     3     9     9
 0.0000000001     1     3     9    13
 0.0000000005     1     3    10     1
 -0.0316294489     1     3    10     2
 0.0014351680     1     3    10     4
 -0.0000000001     1     3    10     5
 -0.0189669055     1     3    10    10
 0.0000000001     1     3    10    11
 -0.0975701089     1     3    11     1
 0.0123049718     1     3    11     5
 0.0000000001     1     3    11    10
 -0.0137085002     1     3    11    11
 -0.0143654064     1     3    12     6
 0.0018588281     1     3    12     7
 -0.0000000001     1     3    12     8
 -0.0193480753     1     3    12    12
 -0.0018588281     1     3    13     6
 -0.0143654064     1     3    13     7
 0.0000000001     1     3    13     9
 -0.0193480753     1     3    13    13
 0.0001276864     1     4     2     1
 0.0000101171     1     4     2     3
 -0.0000031216     1     4     2     5
 -0.0000131660     1     4     2    11
 0.0000000058     1     4     3     1
 -0.3551195630     1     4     3     2
 0.0008589903     1     4     3    10
 -0.5600396626     1     4     4     1
 0.0003224003     1     4     4     3
 -0.0002277346     1     4     4     5
 0.0007083366     1     4     4    11
 0.0000000010     1     4     5     1
 -0.0652533522     1     4     5     2
 0.0000000001     1     4     5     5
 0.0182076331     1     4     5    10
 -0.0000000001     1     4     5    11
 0.0000000001     1     4     6     6
 0.0169606003     1     4     6     8
 -0.0060322306     1     4     6     9
 0.0000000001     1     4     6    12
 0.0000000001     1     4     7     7
 -0.0060322306     1     4     7     8
 -0.0169606003     1     4     7     9
 0.0000000001     1     4     7    13
 0.0163729679     1     4     8     6
 -0.0058232324     1     4     8     7
 0.0000000001     1     4     8     8
 0.0220073105     1     4     8    12
 -0.0047604097     1     4     8    13
 -0.0058232324     1     4     9     6
 -0.0163729679     1     4     9     7
 0.0000000001     1     4     9     9
 -0.0047604097     1     4     9    12
 -0.0220073105     1     4     9    13
 -0.0295698418     1     4    10     1
 -0.0014351680     1     4    10     3
 0.0172753108     1     4    10     5
 0.0000000001     1     4    10    10
 -0.0198028570     1     4    10    11
 0.0000000014     1     4    11     1
 -0.0875470108     1     4    11     2
 -0.0000000001     1     4    11     5
 -0.0143674123     1     4    11    10
 0.0000000002     1     4    11    11
 0.0000000002     1     4    12     6
 0.0155559899     1     4    12     8
 -0.0033649221     1     4    12     9
 0.0000000002     1     4    12    12
 0.0000000002     1     4    13     7
 -0.0033649221     1     4    13     8
 -0.0155559899     1     4    13     9
 0.0000000002     1     4    13    13
 0.0000000001     1     5     2     1
 -0.0025319540     1     5     2     2
 0.0000031216     1     5     2     4
 -0.0000682756     1     5     2    10
 0.0000388019     1     5     3     1
 -0.0016692783     1     5     3     3
 0.0059972627     1     5     3    11
 0.0000000010     1     5     4     1
 -0.0652523821     1     5     4     2
 0.0002277346     1     5     4     4
 0.0006015033     1     5     4    10
 -0.5297136945     1     5     5     1
 0.0178876465     1     5     5     3
 -0.0000000001     1     5     5     4
 0.0051076579     1     5     5    11
 -0.0026768225     1     5     6     6
 -0.0017355621     1     5     6    12
 -0.0002245750     1     5     6    13
 -0.0026768225     1     5     7     7
 0.0002245750     1     5     7    12
 -0.0017355621     1     5     7    13
 -0.0026956171     1     5     8     8
 -0.0026956171     1     5     9     9
 -0.0000000050     1     5    10     1
 0.3041149514     1     5    10     2
 0.0000000001     1     5    10     3
 -0.0172753108     1     5    10     4
 -0.0058174595     1     5    10    10
 0.1388772540     1     5    11     1
 -0.0123049718     1     5    11     3
 0.0000000001     1     5    11     4
 -0.0128431367     1     5    11    11
 -0.0019506218     1     5    12     6
 0.0002524029     1     5    12     7
 -0.0037947471     1     5    12    12
 -0.0002524029     1     5    13     6
 -0.0019506218     1     5    13     7
 -0.0037947471     1     5    13    13
 -0.0000337524     1     6     2     8
 0.0000120044     1     6     2     9
 -0.0074156821     1     6     3    12
 -0.0009595606     1     6     3    13
 0.0003425106     1     6     4     8
 -0.0001218177     1     6     4     9
 0.0003120245     1     6     5    12
 0.0000403748     1     6     5    13
 -0.5251976138     1     6     6     1
 0.0180951690     1     6     6     3
 -0.0000000001     1     6     6     4
 0.0026768225     1     6     6     5
 0.0053514297     1     6     6    11
 -0.0000000048     1     6     8     1
 0.2970041310     1     6     8     2
 0.0000000001     1     6     8     3
 -0.0163729679     1     6     8     4
 -0.0030817944     1     6     8    10
 0.0000000017     1     6     9     1
 -0.1056329000     1     6     9     2
 0.0058232324     1     6     9     4
 0.0010960752     1     6     9    10
 -0.0000332296     1     6    10     8
 0.0000118185     1     6    10     9
 0.0012388275     1     6    11    12
 0.0001602995     1     6    11    13
 -0.1903792425     1     6    12     1
 0.0143654064     1     6    12     3
 -0.0000000002     1     6    12     4
 0.0019506218     1     6    12     5
 0.0096947380     1     6    12    11
 -0.0246343386     1     6    13     1
 0.0018588281     1     6    13     3
 0.0002524029     1     6    13     5
 0.0012544616     1     6    13    11
 0.0000120044     1     7     2     8
 0.0000337524     1     7     2     9
 0.0009595606     1     7     3    12
 -0.0074156821     1     7     3    13
 -0.0001218177     1     7     4     8
 -0.0003425106     1     7     4     9
 -0.0000403748     1     7     5    12
 0.0003120245     1     7     5    13
 -0.5251976138     1     7     7     1
 0.0180951690     1     7     7     3
 -0.0000000001     1     7     7     4
 0.0026768225     1     7     7     5
 0.0053514297     1     7     7    11
 0.0000000017     1     7     8     1
 -0.1056329000     1     7     8     2
 0.0058232324     1     7     8     4
 0.0010960752     1     7     8    10
 0.0000000048     1     7     9     1
 -0.2970041310     1     7     9     2
 -0.0000000001     1     7     9     3
 0.0163729679     1     7     9     4
 0.0030817944     1     7     9    10
 0.0000118185     1     7    10     8
 0.0000332296     1     7    10     9
 -0.0001602995     1     7    11    12
 0.0012388275     1     7    11    13
 0.0246343386     1     7    12     1
 -0.0018588281     1     7    12     3
 -0.0002524029     1     7    12     5
 -0.0012544616     1     7    12    11
 -0.1903792425     1     7    13     1
 0.0143654064     1     7    13     3
 -0.0000000002     1     7    13     4
 0.0019506218     1     7    13     5
 0.0096947380     1     7    13    11
 0.0000337524     1     8     2     6
 -0.0000120044     1     8     2     7
 0.0000388538     1     8     2    12
 -0.0000084045     1     8     2    13
 -0.0003425106     1     8     4     6
 0.0001218177     1     8     4     7
 0.0063288081     1     8     4    12
 -0.0013689869     1     8     4    13
 -0.0000000048     1     8     6     1
 0.2970400677     1     8     6     2
 0.0000000001     1     8     6     3
 -0.0169606003     1     8     6     4
 -0.0032377369     1     8     6    10
 0.0000000017     1     8     7     1
 -0.1056456812     1     8     7     2
 0.0060322306     1     8     7     4
 0.0011515381     1     8     7    10
 -0.5365632368     1     8     8     1
 0.0180471410     1     8     8     3
 -0.0000000001     1     8     8     4
 0.0026956171     1     8     8     5
 0.0064675185     1     8     8    11
 0.0000332296     1     8    10     6
 -0.0000118185     1     8    10     7
 0.0007557154     1     8    10    12
 -0.0001634691     1     8    10    13
 0.0000000001     1     8    11    12
 -0.0000000033     1     8    12     1
 0.2045123965     1     8    12     2
 0.0000000001     1     8    12     3
 -0.0155559899     1     8    12     4
 -0.0022178630     1     8    12    10
 0.0000000001     1     8    12    11
 0.0000000007     1     8    13     1
 -0.0442381544     1     8    13     2
 0.0033649221     1     8    13     4
 0.0004797468     1     8    13    10
 -0.0000120044     1     9     2     6
 -0.0000337524     1     9     2     7
 -0.0000084045     1     9     2    12
 -0.0000388538     1     9     2    13
 0.0001218177     1     9     4     6
 0.0003425106     1     9     4     7
 -0.0013689869     1     9     4    12
 -0.0063288081     1     9     4    13
 0.0000000017     1     9     6     1
 -0.1056456813     1     9     6     2
 0.0060322306     1     9     6     4
 0.0011515381     1     9     6    10
 0.0000000048     1     9     7     1
 -0.2970400677     1     9     7     2
 -0.0000000001     1     9     7     3
 0.0169606003     1     9     7     4
 0.0032377369     1     9     7    10
 -0.5365632368     1     9     9     1
 0.0180471410     1     9     9     3
 -0.0000000001     1     9     9     4
 0.0026956171     1     9     9     5
 0.0064675185     1     9     9    11
 -0.0000118185     1     9    10     6
 -0.0000332296     1     9    10     7
 -0.0001634691     1     9    10    12
 -0.0007557154     1     9    10    13
 -0.0000000001     1     9    11    13
 0.0000000007     1     9    12     1
 -0.0442381544     1     9    12     2
 0.0033649221     1     9    12     4
 0.0004797468     1     9    12    10
 0.0000000033     1     9    13     1
 -0.2045123965     1     9    13     2
 -0.0000000001     1     9    13     3
 0.0155559899     1     9    13     4
 0.0022178630     1     9    13    10
 -0.0000000001     1     9    13    11
 -0.0026849733     1    10     2     1
 -0.0000003245     1    10     2     3
 0.0000682756     1    10     2     5
 -0.0000671600     1    10     2    11
 0.0000000005     1    10     3     1
 -0.0316309871     1    10     3     2
 -0.0008589903     1    10     3     4
 -0.0295698418     1    10     4     1
 -0.0023272107     1    10     4     3
 -0.0006015033     1    10     4     5
 -0.0052598058     1    10     4    11
 -0.0000000050     1    10     5     1
 0.3041823917     1    10     5     2
 0.0000000001     1    10     5     3
 -0.0182076331     1    10     5     4
 0.0032377369     1    10     6     8
 -0.0011515381     1    10     6     9
 -0.0011515381     1    10     7     8
 -0.0032377369     1    10     7     9
 0.0030817944     1    10     8     6
 -0.0010960752     1    10     8     7
 0.0029987959     1    10     8    12
 -0.0006486707     1    10     8    13
 -0.0010960752     1    10     9     6
 -0.0030817944     1    10     9     7
 -0.0006486707     1    10     9    12
 -0.0029987959     1    10     9    13
 -0.5600154931     1    10    10     1
 0.0189669055     1    10    10     3
 -0.0000000001     1    10    10     4
 0.0058174595     1    10    10     5
 0.0035449199     1    10    10    11
 0.0000000035     1    10    11     1
 -0.2202863527     1    10    11     2
 -0.0000000001     1    10    11     3
 0.0143674123     1    10    11     4
 -0.0000000001     1    10    11    11
 0.0022178630     1    10    12     8
 -0.0004797468     1    10    12     9
 -0.0004797468     1    10    13     8
 -0.0022178630     1    10    13     9
 0.0021527896     1    11     2     2
 0.0000131660     1    11     2     4
 0.0000671600     1    11     2    10
 -0.0975701089     1    11     3     1
 0.0021261515     1    11     3     3
 -0.0059972627     1    11     3     5
 0.0000000014     1    11     4     1
 -0.0875235028     1    11     4     2
 -0.0007083366     1    11     4     4
 0.0052598058     1    11     4    10
 0.1388772540     1    11     5     1
 -0.0185486944     1    11     5     3
 0.0000000001     1    11     5     4
 -0.0051076579     1    11     5     5
 -0.0053514297     1    11     6     6
 -0.0085672946     1    11     6    12
 -0.0011085748     1    11     6    13
 -0.0053514297     1    11     7     7
 0.0011085748     1    11     7    12
 -0.0085672946     1    11     7    13
 -0.0064675185     1    11     8     8
 -0.0064675185     1    11     9     9
 0.0000000035     1    11    10     1
 -0.2202201954     1    11    10     2
 -0.0000000001     1    11    10     3
 0.0198028570     1    11    10     4
 -0.0035449199     1    11    10    10
 -0.5466192803     1    11    11     1
 0.0137085002     1    11    11     3
 -0.0000000002     1    11    11     4
 0.0128431367     1    11    11     5
 0.0000000001     1    11    11    10
 -0.0096947380     1    11    12     6
 0.0012544616     1    11    12     7
 -0.0000000001     1    11    12     8
 -0.0115155393     1    11    12    12
 -0.0012544616     1    11    13     6
 -0.0096947380     1    11    13     7
 0.0000000001     1    11    13     9
 -0.0115155393     1    11    13    13
 -0.0000388538     1    12     2     8
 0.0000084045     1    12     2     9
 0.0074156821     1    12     3     6
 -0.0009595606     1    12     3     7
 -0.0063288081     1    12     4     8
 0.0013689869     1    12     4     9
 -0.0003120245     1    12     5     6
 0.0000403748     1    12     5     7
 -0.1903792425     1    12     6     1
 0.0219804434     1    12     6     3
 -0.0000000001     1    12     6     4
 0.0017355621     1    12     6     5
 0.0085672946     1    12     6    11
 0.0246343386     1    12     7     1
 -0.0028441845     1    12     7     3
 -0.0002245750     1    12     7     5
 -0.0011085748     1    12     7    11
 -0.0000000033     1    12     8     1
 0.2044730881     1    12     8     2
 0.0000000001     1    12     8     3
 -0.0220073105     1    12     8     4
 -0.0029987959     1    12     8    10
 0.0000000007     1    12     9     1
 -0.0442296516     1    12     9     2
 0.0047604097     1    12     9     4
 0.0006486707     1    12     9    10
 -0.0007557154     1    12    10     8
 0.0001634691     1    12    10     9
 -0.0012388275     1    12    11     6
 0.0001602995     1    12    11     7
 -0.0000000001     1    12    11     8
 -0.5207834563     1    12    12     1
 0.0193480753     1    12    12     3
 -0.0000000002     1    12    12     4
 0.0037947471     1    12    12     5
 0.0115155393     1    12    12    11
 0.0000084045     1    13     2     8
 0.0000388538     1    13     2     9
 0.0009595606     1    13     3     6
 0.0074156821     1    13     3     7
 0.0013689869     1    13     4     8
 0.0063288081     1    13     4     9
 -0.0000403748     1    13     5     6
 -0.0003120245     1    13     5     7
 -0.0246343386     1    13     6     1
 0.0028441845     1    13     6     3
 0.0002245750     1    13     6     5
 0.0011085748     1    13     6    11
 -0.1903792425     1    13     7     1
 0.0219804434     1    13     7     3
 -0.0000000001     1    13     7     4
 0.0017355621     1    13     7     5
 0.0085672946     1    13     7    11
 0.0000000007     1    13     8     1
 -0.0442296516     1    13     8     2
 0.0047604097     1    13     8     4
 0.0006486707     1    13     8    10
 0.0000000033     1    13     9     1
 -0.2044730881     1    13     9     2
 -0.0000000001     1    13     9     3
 0.0220073105     1    13     9     4
 0.0029987959     1    13     9    10
 0.0001634691     1    13    10     8
 0.0007557154     1    13    10     9
 -0.0001602995     1    13    11     6
 -0.0012388275     1    13    11     7
 0.0000000001     1    13    11     9
 -0.5207834563     1    13    13     1
 0.0193480753     1    13    13     3
 -0.0000000002     1    13    13     4
 0.0037947471     1    13    13     5
 0.0115155393     1    13    13    11
 -0.2014873052     2     1     1     2
 0.0001276864     2     1     1     4
 0.0000000001     2     1     1     5
 -0.0026849733     2     1     1    10
 -0.0001124721     2     1     3     2
 0.3551374552     2     1     3     4
 0.0316294489     2     1     3    10
 0.3551195630     2     1     4     3
 0.0652533522     2     1     4     5
 0.0875470108     2     1     4    11
 0.0025319540     2     1     5     2
 0.0652523821     2     1     5     4
 -0.3041149514     2     1     5    10
 -0.2970041310     2     1     6     8
 0.1056329000     2     1     6     9
 0.1056329000     2     1     7     8
 0.2970041310     2     1     7     9
 -0.2970400677     2     1     8     6
 0.1056456812     2     1     8     7
 -0.2045123965     2     1     8    12
 0.0442381544     2     1     8    13
 0.1056456813     2     1     9     6
 0.2970400677     2     1     9     7
 0.0442381544     2     1     9    12
 0.2045123965     2     1     9    13
 0.0316309871     2     1    10     3
 -0.3041823917     2     1    10     5
 0.2202863527     2     1    10    11
 -0.0021527896     2     1    11     2
 0.0875235028     2     1    11     4
 0.2202201954     2     1    11    10
 -0.2044730881     2     1    12     8
 0.0442296516     2     1    12     9
 0.0442296516     2     1    13     8
 0.2044730881     2     1    13     9
 0.2014873052     2     2     1     1
 0.0001124721     2     2     1     3
 -0.0025319540     2     2     1     5
 0.0021527896     2     2     1    11
 0.0001124721     2     2     3     1
 0.5539106019     2     2     3     3
 0.0000000058     2     2     3     4
 -0.0000470543     2     2     3     5
 0.0000000005     2     2     3    10
 0.0976014125     2     2     3    11
 0.0000000058     2     2     4     3
 0.5600413973     2     2     4     4
 0.0000000010     2     2     4     5
 0.0295836526     2     2     4    10
 0.0000000014     2     2     4    11
 -0.0025319540     2     2     5     1
 -0.0000470543     2     2     5     3
 0.0000000010     2     2     5     4
 0.5297752683     2     2     5     5
 -0.0000000050     2     2     5    10
 -0.1389379620     2     2     5    11
 0.5252283153     2     2     6     6
 -0.0000000048     2     2     6     8
 0.0000000017     2     2     6     9
 0.1904138258     2     2     6    12
 0.0246388134     2     2     6    13
 0.5252283153     2     2     7     7
 0.0000000017     2     2     7     8
 0.0000000048     2     2     7     9
 -0.0246388134     2     2     7    12
 0.1904138258     2     2     7    13
 -0.0000000048     2     2     8     6
 0.0000000017     2     2     8     7
 0.5365278648     2     2     8     8
 -0.0000000033     2     2     8    12
 0.0000000007     2     2     8    13
 0.0000000017     2     2     9     6
 0.0000000048     2     2     9     7
 0.5365278648     2     2     9     9
 0.0000000007     2     2     9    12
 0.0000000033     2     2     9    13
 0.0000000005     2     2    10     3
 0.0295836526     2     2    10     4
 -0.0000000050     2     2    10     5
 0.5599467540     2     2    10    10
 0.0000000035     2     2    10    11
 0.0021527896     2     2    11     1
 0.0976014125     2     2    11     3
 0.0000000014     2     2    11     4
 -0.1389379620     2     2    11     5
 0.0000000035     2     2    11    10
 0.5466925162     2     2    11    11
 0.1904138258     2     2    12     6
 -0.0246388134     2     2    12     7
 -0.0000000033     2     2    12     8
 0.0000000007     2     2    12     9
 0.5208235373     2     2    12    12
 0.0246388134     2     2    13     6
 0.1904138258     2     2    13     7
 0.0000000007     2     2    13     8
 0.0000000033     2     2    13     9
 0.5208235373     2     2    13    13
 -0.0001124721     2     3     1     2
 0.0000101171     2     3     1     4
 -0.0000003245     2     3     1    10
 -0.5539106019     2     3     3     2
 0.0001321242     2     3     3     4
 -0.0020528701     2     3     3    10
 -0.3551195630     2     3     4     1
 -0.0000000058     2     3     4     2
 -0.0025503853     2     3     4     5
 0.0022810784     2     3     4    11
 0.0000470543     2     3     5     2
 -0.0016027271     2     3     5     4
 -0.0000000001     2     3     5     5
 0.0187479878     2     3     5    10
 0.0000000001     2     3     5    11
 -0.0000000001     2     3     6     6
 0.0171628197     2     3     6     8
 -0.0061041522     2     3     6     9
 -0.0000000001     2     3     6    12
 -0.0000000001     2     3     7     7
 -0.0061041522     2     3     7     8
 -0.0171628197     2     3     7     9
 -0.0000000001     2     3     7    13
 0.0159632121     2     3     8     6
 -0.0056774981     2     3     8     7
 -0.0000000001     2     3     8     8
 0.0212499075     2     3     8    12
 -0.0045965756     2     3     8    13
 -0.0056774981     2     3     9     6
 -0.0159632121     2     3     9     7
 -0.0000000001     2     3     9     9
 -0.0045965756     2     3     9    12
 -0.0212499075     2     3     9    13
 -0.0316309871     2     3    10     1
 -0.0000000005     2     3    10     2
 0.0166149971     2     3    10     5
 -0.0000000001     2     3    10    10
 -0.0183520780     2     3    10    11
 -0.0976014125     2     3    11     2
 0.0015104795     2     3    11     4
 0.0000000001     2     3    11     5
 -0.0136166716     2     3    11    10
 -0.0000000001     2     3    11    11
 -0.0000000002     2     3    12     6
 0.0150305573     2     3    12     8
 -0.0032512655     2     3    12     9
 -0.0000000002     2     3    12    12
 -0.0000000002     2     3    13     7
 -0.0032512655     2     3    13     8
 -0.0150305573     2     3    13     9
 -0.0000000002     2     3    13    13
 -0.0001276864     2     4     1     1
 -0.0000101171     2     4     1     3
 0.0000031216     2     4     1     5
 0.0000131660     2     4     1    11
 -0.3551374552     2     4     3     1
 -0.0000000058     2     4     3     2
 -0.0001321242     2     4     3     3
 -0.0009568114     2     4     3     5
 0.0008597888     2     4     3    11
 -0.5600413973     2     4     4     2
 -0.0000364182     2     4     4    10
 -0.0652523821     2     4     5     1
 -0.0000000010     2     4     5     2
 0.0016027271     2     4     5     3
 -0.0174321067     2     4     5     5
 0.0000000001     2     4     5    10
 0.0185147553     2     4     5    11
 -0.0181073533     2     4     6     6
 0.0000000001     2     4     6     8
 -0.0219172869     2     4     6    12
 -0.0028360123     2     4     6    13
 -0.0181073533     2     4     7     7
 -0.0000000001     2     4     7     9
 0.0028360123     2     4     7    12
 -0.0219172869     2     4     7    13
 0.0000000001     2     4     8     6
 -0.0188050108     2     4     8     8
 0.0000000001     2     4     8    12
 -0.0000000001     2     4     9     7
 -0.0188050108     2     4     9     9
 -0.0000000001     2     4     9    13
 -0.0295836526     2     4    10     2
 0.0000000001     2     4    10     5
 -0.0202082694     2     4    10    10
 -0.0000000002     2     4    10    11
 -0.0875235028     2     4    11     1
 -0.0000000014     2     4    11     2
 -0.0015104795     2     4    11     3
 0.0125620966     2     4    11     5
 -0.0000000002     2     4    11    10
 -0.0153276388     2     4    11    11
 -0.0147946761     2     4    12     6
 0.0019143739     2     4    12     7
 0.0000000002     2     4    12     8
 -0.0201457107     2     4    12    12
 -0.0019143739     2     4    13     6
 -0.0147946761     2     4    13     7
 -0.0000000002     2     4    13     9
 -0.0201457107     2     4    13    13
 -0.0000000001     2     5     1     1
 0.0025319540     2     5     1     2
 -0.0000031216     2     5     1     4
 0.0000682756     2     5     1    10
 0.0000470543     2     5     3     2
 0.0009568114     2     5     3     4
 0.0018788384     2     5     3    10
 -0.0652533522     2     5     4     1
 -0.0000000010     2     5     4     2
 0.0025503853     2     5     4     3
 0.0056546448     2     5     4    11
 -0.5297752683     2     5     5     2
 0.0000000001     2     5     5     3
 0.0174321067     2     5     5     4
 0.0000304393     2     5     5    10
 0.0000715055     2     5     6     8
 -0.0000254318     2     5     6     9
 -0.0000254318     2     5     7     8
 -0.0000715055     2     5     7     9
 0.0001936444     2     5     8     6
 -0.0000688718     2     5     8     7
 0.0016750506     2     5     8    12
 -0.0003623308     2     5     8    13
 -0.0000688718     2     5     9     6
 -0.0001936444     2     5     9     7
 -0.0003623308     2     5     9    12
 -0.0016750506     2     5     9    13
 0.3041823917     2     5    10     1
 0.0000000050     2     5    10     2
 -0.0166149971     2     5    10     3
 -0.0000000001     2     5    10     4
 -0.0085015203     2     5    10    11
 0.1389379620     2     5    11     2
 -0.0000000001     2     5    11     3
 -0.0125620966     2     5    11     4
 -0.0037892777     2     5    11    10
 -0.0000000001     2     5    11    11
 0.0017531285     2     5    12     8
 -0.0003792199     2     5    12     9
 -0.0003792199     2     5    13     8
 -0.0017531285     2     5    13     9
 0.0000337524     2     6     1     8
 -0.0000120044     2     6     1     9
 0.0010624408     2     6     3     8
 -0.0003778691     2     6     3     9
 -0.0068176682     2     6     4    12
 -0.0008821799     2     6     4    13
 -0.0001567636     2     6     5     8
 0.0000557547     2     6     5     9
 -0.5252283153     2     6     6     2