&FCI NORB= 13,NELEC= 14,MS2=0,
 ORBSYM=1,1,1,1,1,1,1,1,1,1,1,1,1
 ISYM=1,
&END
 0.2102486163     1     1     2     2
 -0.0001637352     1     1     2     4
 -0.0029230460     1     1     2    10
 0.5580683075     1     1     3     3
 -0.0000000102     1     1     3     4
 0.0005372773     1     1     3     5
 0.0000000011     1     1     3    10
 0.1098553930     1     1     3    13
 -0.0001637352     1     1     4     2
 -0.0000000102     1     1     4     3
 0.5645666450     1     1     4     4
 0.0000000021     1     1     4     5
 -0.0319901316     1     1     4    10
 -0.0000000028     1     1     4    13
 0.0005372773     1     1     5     3
 0.0000000021     1     1     5     4
 0.5380044927     1     1     5     5
 0.0000000087     1     1     5    10
 0.1250825701     1     1     5    13
 0.5284712757     1     1     6     6
 0.0000000011     1     1     6     8
 0.0000000089     1     1     6     9
 -0.1250389217     1     1     6    11
 0.1454591997     1     1     6    12
 0.5284712757     1     1     7     7
 -0.0000000089     1     1     7     8
 0.0000000011     1     1     7     9
 0.1454591997     1     1     7    11
 0.1250389217     1     1     7    12
 0.0000000011     1     1     8     6
 -0.0000000089     1     1     8     7
 0.5413787751     1     1     8     8
 -0.0000000051     1     1     8    11
 -0.0000000033     1     1     8    12
 0.0000000089     1     1     9     6
 0.0000000011     1     1     9     7
 0.5413787751     1     1     9     9
 -0.0000000033     1     1     9    11
 0.0000000051     1     1     9    12
 -0.0029230460     1     1    10     2
 0.0000000011     1     1    10     3
 -0.0319901316     1     1    10     4
 0.0000000087     1     1    10     5
 0.5674376953     1     1    10    10
 0.0000000061     1     1    10    13
 -0.1250389217     1     1    11     6
 0.1454591997     1     1    11     7
 -0.0000000051     1     1    11     8
 -0.0000000033     1     1    11     9
 0.5259013223     1     1    11    11
 0.1454591997     1     1    12     6
 0.1250389217     1     1    12     7
 -0.0000000033     1     1    12     8
 0.0000000051     1     1    12     9
 0.5259013223     1     1    12    12
 0.1098553930     1     1    13     3
 -0.0000000028     1     1    13     4
 0.1250825701     1     1    13     5
 0.0000000061     1     1    13    10
 0.5485286310     1     1    13    13
 -0.2102486163     1     2     2     1
 -0.0001347243     1     2     2     3
 -0.0027798598     1     2     2     5
 -0.0000000001     1     2     2    10
 -0.0021538102     1     2     2    13
 0.3502697274     1     2     3     4
 -0.0368363691     1     2     3    10
 0.0001637352     1     2     4     1
 0.3502869338     1     2     4     3
 -0.0727774512     1     2     4     5
 0.0991560329     1     2     4    13
 -0.0727796084     1     2     5     4
 -0.3000801051     1     2     5    10
 -0.0405597301     1     2     6     8
 -0.3080471253     1     2     6     9
 0.3080471253     1     2     7     8
 -0.0405597301     1     2     7     9
 -0.0405539094     1     2     8     6
 0.3080029171     1     2     8     7
 0.1762435466     1     2     8    11
 0.1152515612     1     2     8    12
 -0.3080029171     1     2     9     6
 -0.0405539094     1     2     9     7
 0.1152515612     1     2     9    11
 -0.1762435466     1     2     9    12
 0.0029230460     1     2    10     1
 -0.0368327639     1     2    10     3
 -0.3000017266     1     2    10     5
 -0.2131727294     1     2    10    13
 0.1762823375     1     2    11     8
 0.1152769279     1     2    11     9
 0.1152769279     1     2    12     8
 -0.1762823375     1     2    12     9
 0.0991809486     1     2    13     4
 -0.2132438198     1     2    13    10
 0.0001347243     1     3     2     2
 -0.0000096667     1     3     2     4
 -0.0000020230     1     3     2    10
 -0.5580683075     1     3     3     1
 -0.0019394120     1     3     3     5
 -0.0022931543     1     3     3    13
 0.0000000102     1     3     4     1
 -0.3502869338     1     3     4     2
 -0.0003702360     1     3     4     4
 -0.0026244679     1     3     4    10
 -0.0005372773     1     3     5     1
 -0.0181822471     1     3     5     5
 -0.0000000003     1     3     5    10
 -0.0173664205     1     3     5    13
 -0.0179919219     1     3     6     6
 -0.0000000003     1     3     6     9
 0.0144084401     1     3     6    11
 -0.0167615022     1     3     6    12
 -0.0179919219     1     3     7     7
 0.0000000003     1     3     7     8
 -0.0167615022     1     3     7    11
 -0.0144084401     1     3     7    12
 0.0000000003     1     3     8     7
 -0.0180643241     1     3     8     8
 0.0000000003     1     3     8    11
 0.0000000001     1     3     8    12
 -0.0000000003     1     3     9     6
 -0.0180643241     1     3     9     9
 0.0000000001     1     3     9    11
 -0.0000000003     1     3     9    12
 -0.0000000011     1     3    10     1
 0.0368327639     1     3    10     2
 -0.0017072726     1     3    10     4
 -0.0000000003     1     3    10     5
 -0.0190240591     1     3    10    10
 -0.0000000003     1     3    10    13
 0.0093862123     1     3    11     6
 -0.0109190875     1     3    11     7
 0.0000000002     1     3    11     8
 0.0000000001     1     3    11     9
 -0.0193459173     1     3    11    11
 -0.0109190875     1     3    12     6
 -0.0093862123     1     3    12     7
 0.0000000001     1     3    12     8
 -0.0000000002     1     3    12     9
 -0.0193459173     1     3    12    12
 -0.1098553930     1     3    13     1
 -0.0115321306     1     3    13     5
 -0.0000000002     1     3    13    10
 -0.0118482799     1     3    13    13
 0.0001637352     1     4     2     1
 0.0000096667     1     4     2     3
 0.0000043687     1     4     2     5
 -0.0000138821     1     4     2    13
 0.0000000102     1     4     3     1
 -0.3502697274     1     4     3     2
 -0.0008859707     1     4     3    10
 -0.5645666450     1     4     4     1
 0.0003702360     1     4     4     3
 0.0003356982     1     4     4     5
 0.0008189626     1     4     4    13
 -0.0000000021     1     4     5     1
 0.0727796084     1     4     5     2
 0.0000000003     1     4     5     5
 0.0183648768     1     4     5    10
 0.0000000003     1     4     5    13
 0.0000000003     1     4     6     6
 0.0023412633     1     4     6     8
 0.0177816621     1     4     6     9
 -0.0000000003     1     4     6    11
 0.0000000003     1     4     6    12
 0.0000000003     1     4     7     7
 -0.0177816621     1     4     7     8
 0.0023412633     1     4     7     9
 0.0000000003     1     4     7    11
 0.0000000003     1     4     7    12
 0.0022668676     1     4     8     6
 -0.0172166342     1     4     8     7
 0.0000000003     1     4     8     8
 -0.0189645570     1     4     8    11
 -0.0124015594     1     4     8    12
 0.0172166342     1     4     9     6
 0.0022668676     1     4     9     7
 0.0000000003     1     4     9     9
 -0.0124015594     1     4     9    11
 0.0189645570     1     4     9    12
 0.0319901316     1     4    10     1
 0.0017072726     1     4    10     3
 0.0173837471     1     4    10     5
 0.0000000003     1     4    10    10
 0.0187258660     1     4    10    13
 -0.0000000002     1     4    11     6
 0.0000000002     1     4    11     7
 -0.0134187029     1     4    11     8
 -0.0087749395     1     4    11     9
 0.0000000003     1     4    11    11
 0.0000000002     1     4    12     6
 0.0000000002     1     4    12     7
 -0.0087749395     1     4    12     8
 0.0134187029     1     4    12     9
 0.0000000003     1     4    12    12
 0.0000000028     1     4    13     1
 -0.0991809486     1     4    13     2
 0.0000000002     1     4    13     5
 0.0135309667     1     4    13    10
 0.0000000002     1     4    13    13
 0.0027798598     1     5     2     2
 -0.0000043687     1     5     2     4
 -0.0000787963     1     5     2    10
 -0.0005372773     1     5     3     1
 0.0019394120     1     5     3     3
 -0.0055886098     1     5     3    13
 -0.0000000021     1     5     4     1
 0.0727774512     1     5     4     2
 -0.0003356982     1     5     4     4
 0.0006328539     1     5     4    10
 0.0000000001     1     5     4    13
 -0.5380044927     1     5     5     1
 0.0181822471     1     5     5     3
 -0.0000000003     1     5     5     4
 0.0060476123     1     5     5    13
 0.0029882963     1     5     6     6
 -0.0012497931     1     5     6    11
 0.0014538985     1     5     6    12
 0.0029882963     1     5     7     7
 0.0014538985     1     5     7    11
 0.0012497931     1     5     7    12
 0.0029949115     1     5     8     8
 0.0029949115     1     5     9     9
 -0.0000000087     1     5    10     1
 0.3000017266     1     5    10     2
 0.0000000003     1     5    10     3
 -0.0173837471     1     5    10     4
 0.0065298520     1     5    10    10
 0.0000000001     1     5    10    13
 -0.0014247877     1     5    11     6
 0.0016574717     1     5    11     7
 0.0042248878     1     5    11    11
 0.0016574717     1     5    12     6
 0.0014247877     1     5    12     7
 0.0042248878     1     5    12    12
 -0.1250825701     1     5    13     1
 0.0115321306     1     5    13     3
 -0.0000000002     1     5    13     4
 0.0000000001     1     5    13    10
 0.0134224862     1     5    13    13
 -0.0000053629     1     6     2     8
 -0.0000407308     1     6     2     9
 0.0048889127     1     6     3    11
 -0.0056873277     1     6     3    12
 0.0000409642     1     6     4     8
 0.0003111193     1     6     4     9
 -0.0000000001     1     6     4    11
 0.0000000001     1     6     4    12
 0.0002391214     1     6     5    11
 -0.0002781726     1     6     5    12
 -0.5284712757     1     6     6     1
 0.0179919219     1     6     6     3
 -0.0000000003     1     6     6     4
 -0.0029882963     1     6     6     5
 0.0060904796     1     6     6    13
 -0.0000000011     1     6     8     1
 0.0405539094     1     6     8     2
 -0.0022668676     1     6     8     4
 0.0004788954     1     6     8    10
 -0.0000000089     1     6     9     1
 0.3080029171     1     6     9     2
 0.0000000003     1     6     9     3
 -0.0172166342     1     6     9     4
 0.0036371627     1     6     9    10
 0.0000000001     1     6     9    13
 0.0000045798     1     6    10     8
 0.0000347838     1     6    10     9
 0.1250389217     1     6    11     1
 -0.0093862123     1     6    11     3
 0.0000000002     1     6    11     4
 0.0014247877     1     6    11     5
 -0.0071999183     1     6    11    13
 -0.1454591997     1     6    12     1
 0.0109190875     1     6    12     3
 -0.0000000002     1     6    12     4
 -0.0016574717     1     6    12     5
 0.0083757468     1     6    12    13
 -0.0009604280     1     6    13    11
 0.0011172768     1     6    13    12
 0.0000407308     1     7     2     8
 -0.0000053629     1     7     2     9
 -0.0056873277     1     7     3    11
 -0.0048889127     1     7     3    12
 -0.0003111193     1     7     4     8
 0.0000409642     1     7     4     9
 0.0000000001     1     7     4    11
 0.0000000001     1     7     4    12
 -0.0002781726     1     7     5    11
 -0.0002391214     1     7     5    12
 -0.5284712757     1     7     7     1
 0.0179919219     1     7     7     3
 -0.0000000003     1     7     7     4
 -0.0029882963     1     7     7     5
 0.0060904796     1     7     7    13
 0.0000000089     1     7     8     1
 -0.3080029171     1     7     8     2
 -0.0000000003     1     7     8     3
 0.0172166342     1     7     8     4
 -0.0036371627     1     7     8    10
 -0.0000000001     1     7     8    13
 -0.0000000011     1     7     9     1
 0.0405539094     1     7     9     2
 -0.0022668676     1     7     9     4
 0.0004788954     1     7     9    10
 -0.0000347838     1     7    10     8
 0.0000045798     1     7    10     9
 -0.1454591997     1     7    11     1
 0.0109190875     1     7    11     3
 -0.0000000002     1     7    11     4
 -0.0016574717     1     7    11     5
 0.0083757468     1     7    11    13
 -0.1250389217     1     7    12     1
 0.0093862123     1     7    12     3
 -0.0000000002     1     7    12     4
 -0.0014247877     1     7    12     5
 0.0071999183     1     7    12    13
 0.0011172768     1     7    13    11
 0.0009604280     1     7    13    12
 0.0000053629     1     8     2     6
 -0.0000407308     1     8     2     7
 -0.0000382303     1     8     2    11
 -0.0000250002     1     8     2    12
 0.0000000001     1     8     3    11
 -0.0000409642     1     8     4     6
 0.0003111193     1     8     4     7
 -0.0054325210     1     8     4    11
 -0.0035525076     1     8     4    12
 -0.0000000011     1     8     6     1
 0.0405597301     1     8     6     2
 -0.0023412633     1     8     6     4
 0.0005002859     1     8     6    10
 0.0000000089     1     8     7     1
 -0.3080471253     1     8     7     2
 -0.0000000003     1     8     7     3
 0.0177816621     1     8     7     4
 -0.0037996215     1     8     7    10
 -0.0000000001     1     8     7    13
 -0.5413787751     1     8     8     1
 0.0180643241     1     8     8     3
 -0.0000000003     1     8     8     4
 -0.0029949115     1     8     8     5
 0.0074559936     1     8     8    13
 -0.0000045798     1     8    10     6
 0.0000347838     1     8    10     7
 0.0007552306     1     8    10    11
 0.0004938706     1     8    10    12
 0.0000000051     1     8    11     1
 -0.1762823375     1     8    11     2
 -0.0000000002     1     8    11     3
 0.0134187029     1     8    11     4
 -0.0021898076     1     8    11    10
 -0.0000000001     1     8    11    13
 0.0000000033     1     8    12     1
 -0.1152769279     1     8    12     2
 -0.0000000001     1     8    12     3
 0.0087749395     1     8    12     4
 -0.0014319886     1     8    12    10
 -0.0000000001     1     8    12    13
 0.0000407308     1     9     2     6
 0.0000053629     1     9     2     7
 -0.0000250002     1     9     2    11
 0.0000382303     1     9     2    12
 -0.0000000001     1     9     3    12
 -0.0003111193     1     9     4     6
 -0.0000409642     1     9     4     7
 -0.0035525076     1     9     4    11
 0.0054325210     1     9     4    12
 -0.0000000089     1     9     6     1
 0.3080471253     1     9     6     2
 0.0000000003     1     9     6     3
 -0.0177816621     1     9     6     4
 0.0037996215     1     9     6    10
 0.0000000001     1     9     6    13
 -0.0000000011     1     9     7     1
 0.0405597301     1     9     7     2
 -0.0023412633     1     9     7     4
 0.0005002859     1     9     7    10
 -0.5413787751     1     9     9     1
 0.0180643241     1     9     9     3
 -0.0000000003     1     9     9     4
 -0.0029949115     1     9     9     5
 0.0074559936     1     9     9    13
 -0.0000347838     1     9    10     6
 -0.0000045798     1     9    10     7
 0.0004938706     1     9    10    11
 -0.0007552306     1     9    10    12
 0.0000000033     1     9    11     1
 -0.1152769279     1     9    11     2
 -0.0000000001     1     9    11     3
 0.0087749395     1     9    11     4
 -0.0014319886     1     9    11    10
 -0.0000000001     1     9    11    13
 -0.0000000051     1     9    12     1
 0.1762823375     1     9    12     2
 0.0000000002     1     9    12     3
 -0.0134187029     1     9    12     4
 0.0021898076     1     9    12    10
 0.0000000001     1     9    12    13
 0.0029230460     1    10     2     1
 0.0000000001     1    10     2     2
 0.0000020230     1    10     2     3
 0.0000787963     1    10     2     5
 0.0000724529     1    10     2    13
 -0.0000000011     1    10     3     1
 0.0368363691     1    10     3     2
 0.0008859707     1    10     3     4
 -0.0000000001     1    10     3    13
 0.0319901316     1    10     4     1
 0.0026244679     1    10     4     3
 -0.0006328539     1    10     4     5
 0.0050219808     1    10     4    13
 -0.0000000087     1    10     5     1
 0.3000801051     1    10     5     2
 0.0000000003     1    10     5     3
 -0.0183648768     1    10     5     4
 -0.0005002859     1    10     6     8
 -0.0037996215     1    10     6     9
 0.0037996215     1    10     7     8
 -0.0005002859     1    10     7     9
 -0.0004788954     1    10     8     6
 0.0036371627     1    10     8     7
 0.0029677900     1    10     8    11
 0.0019407374     1    10     8    12
 -0.0036371627     1    10     9     6
 -0.0004788954     1    10     9     7
 0.0019407374     1    10     9    11
 -0.0029677900     1    10     9    12
 -0.5674376953     1    10    10     1
 0.0190240591     1    10    10     3
 -0.0000000003     1    10    10     4
 -0.0065298520     1    10    10     5
 0.0044113898     1    10    10    13
 0.0021898076     1    10    11     8
 0.0014319886     1    10    11     9
 0.0014319886     1    10    12     8
 -0.0021898076     1    10    12     9
 -0.0000000061     1    10    13     1
 0.2132438198     1    10    13     2
 0.0000000002     1    10    13     3
 -0.0135309667     1    10    13     4
 -0.0000000001     1    10    13     5
 0.0000000002     1    10    13    13
 0.0000382303     1    11     2     8
 0.0000250002     1    11     2     9
 -0.0048889127     1    11     3     6
 0.0056873277     1    11     3     7
 -0.0000000001     1    11     3     8
 0.0000000001     1    11     4     6
 -0.0000000001     1    11     4     7
 0.0054325210     1    11     4     8
 0.0035525076     1    11     4     9
 -0.0002391214     1    11     5     6
 0.0002781726     1    11     5     7
 0.1250389217     1    11     6     1
 -0.0144084401     1    11     6     3
 0.0000000003     1    11     6     4
 0.0012497931     1    11     6     5
 -0.0063126254     1    11     6    13
 -0.1454591997     1    11     7     1
 0.0167615022     1    11     7     3
 -0.0000000003     1    11     7     4
 -0.0014538985     1    11     7     5
 0.0073435489     1    11     7    13
 0.0000000051     1    11     8     1
 -0.1762435466     1    11     8     2
 -0.0000000003     1    11     8     3
 0.0189645570     1    11     8     4
 -0.0029677900     1    11     8    10
 -0.0000000001     1    11     8    13
 0.0000000033     1    11     9     1
 -0.1152515612     1    11     9     2
 -0.0000000001     1    11     9     3
 0.0124015594     1    11     9     4
 -0.0019407374     1    11     9    10
 -0.0000000001     1    11     9    13
 -0.0007552306     1    11    10     8
 -0.0004938706     1    11    10     9
 -0.5259013223     1    11    11     1
 0.0193459173     1    11    11     3
 -0.0000000003     1    11    11     4
 -0.0042248878     1    11    11     5
 0.0131960309     1    11    11    13
 0.0009604280     1    11    13     6
 -0.0011172768     1    11    13     7
 0.0000250002     1    12     2     8
 -0.0000382303     1    12     2     9
 0.0056873277     1    12     3     6
 0.0048889127     1    12     3     7
 0.0000000001     1    12     3     9
 -0.0000000001     1    12     4     6
 -0.0000000001     1    12     4     7
 0.0035525076     1    12     4     8
 -0.0054325210     1    12     4     9
 0.0002781726     1    12     5     6
 0.0002391214     1    12     5     7
 -0.1454591997     1    12     6     1
 0.0167615022     1    12     6     3
 -0.0000000003     1    12     6     4
 -0.0014538985     1    12     6     5
 0.0073435489     1    12     6    13
 -0.1250389217     1    12     7     1
 0.0144084401     1    12     7     3
 -0.0000000003     1    12     7     4
 -0.0012497931     1    12     7     5
 0.0063126254     1    12     7    13
 0.0000000033     1    12     8     1
 -0.1152515612     1    12     8     2
 -0.0000000001     1    12     8     3
 0.0124015594     1    12     8     4
 -0.0019407374     1    12     8    10
 -0.0000000001     1    12     8    13
 -0.0000000051     1    12     9     1
 0.1762435466     1    12     9     2
 0.0000000003     1    12     9     3
 -0.0189645570     1    12     9     4
 0.0029677900     1    12     9    10
 0.0000000001     1    12     9    13
 -0.0004938706     1    12    10     8
 0.0007552306     1    12    10     9
 -0.5259013223     1    12    12     1
 0.0193459173     1    12    12     3
 -0.0000000003     1    12    12     4
 -0.0042248878     1    12    12     5
 0.0131960309     1    12    12    13
 -0.0011172768     1    12    13     6
 -0.0009604280     1    12    13     7
 0.0021538102     1    13     2     2
 0.0000138821     1    13     2     4
 -0.0000724529     1    13     2    10
 -0.1098553930     1    13     3     1
 0.0022931543     1    13     3     3
 0.0055886098     1    13     3     5
 0.0000000001     1    13     3    10
 0.0000000028     1    13     4     1
 -0.0991560329     1    13     4     2
 -0.0008189626     1    13     4     4
 -0.0000000001     1    13     4     5
 -0.0050219808     1    13     4    10
 -0.1250825701     1    13     5     1
 0.0173664205     1    13     5     3
 -0.0000000003     1    13     5     4
 -0.0060476123     1    13     5     5
 -0.0060904796     1    13     6     6
 -0.0000000001     1    13     6     9
 0.0063126254     1    13     6    11
 -0.0073435489     1    13     6    12
 -0.0060904796     1    13     7     7
 0.0000000001     1    13     7     8
 -0.0073435489     1    13     7    11
 -0.0063126254     1    13     7    12
 0.0000000001     1    13     8     7
 -0.0074559936     1    13     8     8
 0.0000000001     1    13     8    11
 0.0000000001     1    13     8    12
 -0.0000000001     1    13     9     6
 -0.0074559936     1    13     9     9
 0.0000000001     1    13     9    11
 -0.0000000001     1    13     9    12
 -0.0000000061     1    13    10     1
 0.2131727294     1    13    10     2
 0.0000000003     1    13    10     3
 -0.0187258660     1    13    10     4
 -0.0000000001     1    13    10     5
 -0.0044113898     1    13    10    10
 0.0071999183     1    13    11     6
 -0.0083757468     1    13    11     7
 0.0000000001     1    13    11     8
 0.0000000001     1    13    11     9
 -0.0131960309     1    13    11    11
 -0.0083757468     1    13    12     6
 -0.0071999183     1    13    12     7
 0.0000000001     1    13    12     8
 -0.0000000001     1    13    12     9
 -0.0131960309     1    13    12    12
 -0.5485286310     1    13    13     1
 0.0118482799     1    13    13     3
 -0.0000000002     1    13    13     4
 -0.0134224862     1    13    13     5
 -0.0000000002     1    13    13    10
 -0.2102486163     2     1     1     2
 0.0001637352     2     1     1     4
 0.0029230460     2     1     1    10
 -0.0001347243     2     1     3     2
 0.3502869338     2     1     3     4
 -0.0368327639     2     1     3    10
 0.3502697274     2     1     4     3
 -0.0727796084     2     1     4     5
 0.0991809486     2     1     4    13
 -0.0027798598     2     1     5     2
 -0.0727774512     2     1     5     4
 -0.3000017266     2     1     5    10
 -0.0405539094     2     1     6     8
 -0.3080029171     2     1     6     9
 0.3080029171     2     1     7     8
 -0.0405539094     2     1     7     9
 -0.0405597301     2     1     8     6
 0.3080471253     2     1     8     7
 0.1762823375     2     1     8    11
 0.1152769279     2     1     8    12
 -0.3080471253     2     1     9     6
 -0.0405597301     2     1     9     7
 0.1152769279     2     1     9    11
 -0.1762823375     2     1     9    12
 -0.0000000001     2     1    10     2
 -0.0368363691     2     1    10     3
 -0.3000801051     2     1    10     5
 -0.2132438198     2     1    10    13
 0.1762435466     2     1    11     8
 0.1152515612     2     1    11     9
 0.1152515612     2     1    12     8
 -0.1762435466     2     1    12     9
 -0.0021538102     2     1    13     2
 0.0991560329     2     1    13     4
 -0.2131727294     2     1    13    10
 0.2102486163     2     2     1     1
 0.0001347243     2     2     1     3
 0.0027798598     2     2     1     5
 0.0000000001     2     2     1    10
 0.0021538102     2     2     1    13
 0.0001347243     2     2     3     1
 0.5580667766     2     2     3     3
 0.0000000102     2     2     3     4
 0.0005461696     2     2     3     5
 -0.0000000011     2     2     3    10
 0.1098896753     2     2     3    13
 0.0000000102     2     2     4     3
 0.5645676669     2     2     4     4
 -0.0000000021     2     2     4     5
 -0.0320038288     2     2     4    10
 0.0000000028     2     2     4    13
 0.0027798598     2     2     5     1
 0.0005461696     2     2     5     3
 -0.0000000021     2     2     5     4
 0.5380757819     2     2     5     5
 -0.0000000087     2     2     5    10
 0.1251474186     2     2     5    13
 0.5285053911     2     2     6     6
 -0.0000000011     2     2     6     8
 -0.0000000089     2     2     6     9
 -0.1250645646     2     2     6    11
 0.1454890303     2     2     6    12
 0.5285053911     2     2     7     7
 0.0000000089     2     2     7     8
 -0.0000000011     2     2     7     9
 0.1454890303     2     2     7    11
 0.1250645646     2     2     7    12
 -0.0000000011     2     2     8     6
 0.0000000089     2     2     8     7
 0.5413376061     2     2     8     8
 0.0000000051     2     2     8    11
 0.0000000033     2     2     8    12
 -0.0000000089     2     2     9     6
 -0.0000000011     2     2     9     7
 0.5413376061     2     2     9     9
 0.0000000033     2     2     9    11
 -0.0000000051     2     2     9    12
 0.0000000001     2     2    10     1
 -0.0000000011     2     2    10     3
 -0.0320038288     2     2    10     4
 -0.0000000087     2     2    10     5
 0.5673574149     2     2    10    10
 -0.0000000061     2     2    10    13
 -0.1250645646     2     2    11     6
 0.1454890303     2     2    11     7
 0.0000000051     2     2    11     8
 0.0000000033     2     2    11     9
 0.5259466069     2     2    11    11
 0.1454890303     2     2    12     6
 0.1250645646     2     2    12     7
 0.0000000033     2     2    12     8
 -0.0000000051     2     2    12     9
 0.5259466069     2     2    12    12
 0.0021538102     2     2    13     1
 0.1098896753     2     2    13     3
 0.0000000028     2     2    13     4
 0.1251474186     2     2    13     5
 -0.0000000061     2     2    13    10
 0.5486029741     2     2    13    13
 -0.0001347243     2     3     1     2
 0.0000096667     2     3     1     4
 0.0000020230     2     3     1    10
 -0.5580667766     2     3     3     2
 0.0001486280     2     3     3     4
 0.0023405965     2     3     3    10
 -0.0000000001     2     3     3    13
 -0.3502697274     2     3     4     1
 -0.0000000102     2     3     4     2
 0.0028430662     2     3     4     5
 0.0023037959     2     3     4    13
 -0.0005461696     2     3     5     2
 0.0018974942     2     3     5     4
 -0.0000000003     2     3     5     5
 0.0189350646     2     3     5    10
 -0.0000000003     2     3     5    13
 -0.0000000003     2     3     6     6
 0.0023743203     2     3     6     8
 0.0180327267     2     3     6     9
 0.0000000003     2     3     6    11
 -0.0000000003     2     3     6    12
 -0.0000000003     2     3     7     7
 -0.0180327267     2     3     7     8
 0.0023743203     2     3     7     9
 -0.0000000003     2     3     7    11
 -0.0000000003     2     3     7    12
 0.0022028667     2     3     8     6
 -0.0167305539     2     3     8     7
 -0.0000000003     2     3     8     8
 -0.0182240622     2     3     8    11
 -0.0119173249     2     3     8    12
 0.0167305539     2     3     9     6
 0.0022028667     2     3     9     7
 -0.0000000003     2     3     9     9
 -0.0119173249     2     3     9    11
 0.0182240622     2     3     9    12
 0.0368363691     2     3    10     1
 0.0000000011     2     3    10     2
 0.0166585938     2     3    10     5
 -0.0000000003     2     3    10    10
 0.0170510498     2     3    10    13
 0.0000000002     2     3    11     6
 -0.0000000002     2     3    11     7
 -0.0128973817     2     3    11     8
 -0.0084340301     2     3    11     9
 -0.0000000003     2     3    11    11
 -0.0000000002     2     3    12     6
 -0.0000000002     2     3    12     7
 -0.0084340301     2     3    12     8
 0.0128973817     2     3    12     9
 -0.0000000003     2     3    12    12
 -0.1098896753     2     3    13     2
 0.0016194047     2     3    13     4
 -0.0000000002     2     3    13     5
 0.0127115056     2     3    13    10
 -0.0000000002     2     3    13    13
 -0.0001637352     2     4     1     1
 -0.0000096667     2     4     1     3
 -0.0000043687     2     4     1     5
 0.0000138821     2     4     1    13
 -0.3502869338     2     4     3     1
 -0.0000000102     2     4     3     2
 -0.0001486280     2     4     3     3
 0.0009576930     2     4     3     5
 0.0007767327     2     4     3    13
 -0.5645676669     2     4     4     2
 -0.0000881910     2     4     4    10
 0.0727774512     2     4     5     1
 0.0000000021     2     4     5     2
 -0.0018974942     2     4     5     3
 -0.0176809266     2     4     5     5
 0.0000000002     2     4     5    10
 -0.0174958760     2     4     5    13
 -0.0180214314     2     4     6     6
 0.0000000002     2     4     6     9
 0.0143599719     2     4     6    11
 -0.0167051187     2     4     6    12
 -0.0180214314     2     4     7     7
 -0.0000000002     2     4     7     8
 -0.0167051187     2     4     7    11
 -0.0143599719     2     4     7    12
 -0.0000000003     2     4     8     7
 -0.0189360945     2     4     8     8
 -0.0000000003     2     4     8    11
 -0.0000000001     2     4     8    12
 0.0000000003     2     4     9     6
 -0.0189360945     2     4     9     9
 -0.0000000001     2     4     9    11
 0.0000000003     2     4     9    12
 0.0320038288     2     4    10     2
 0.0000000003     2     4    10     5
 -0.0204790182     2     4    10    10
 0.0000000003     2     4    10    13
 0.0097072971     2     4    11     6
 -0.0112926091     2     4    11     7
 -0.0000000002     2     4    11     8
 -0.0000000002     2     4    11     9
 -0.0202865673     2     4    11    11