&FCI NORB= 13,NELEC= 14,MS2=0,
 ORBSYM=1,1,1,1,1,1,1,1,1,1,1,1,1
 ISYM=1,
&END
 0.3224129422     1     1     2     2
 -0.0018096171     1     1     2     4
 -0.0000000002     1     1     2     5
 0.0067334859     1     1     2    10
 -0.0070346461     1     1     2    11
 0.6304409649     1     1     3     3
 -0.0000000119     1     1     3     4
 -0.0366353845     1     1     3     5
 -0.0000000060     1     1     3    10
 -0.0000000005     1     1     3    11
 -0.0018096171     1     1     4     2
 -0.0000000119     1     1     4     3
 0.6088207853     1     1     4     4
 -0.0000000078     1     1     4     5
 0.0611521520     1     1     4    10
 0.1133247168     1     1     4    11
 -0.0000000002     1     1     5     2
 -0.0366353845     1     1     5     3
 -0.0000000078     1     1     5     4
 0.6156303528     1     1     5     5
 0.0000000110     1     1     5    10
 -0.0000000087     1     1     5    11
 0.5756231349     1     1     6     6
 -0.0000000090     1     1     6     8
 -0.0000000084     1     1     6     9
 -0.0431811118     1     1     6    12
 0.2033531075     1     1     6    13
 0.5756231349     1     1     7     7
 0.0000000084     1     1     7     8
 -0.0000000090     1     1     7     9
 0.2033531075     1     1     7    12
 0.0431811118     1     1     7    13
 -0.0000000090     1     1     8     6
 0.0000000084     1     1     8     7
 0.5911355994     1     1     8     8
 0.0000000077     1     1     8    12
 -0.0000000054     1     1     8    13
 -0.0000000084     1     1     9     6
 -0.0000000090     1     1     9     7
 0.5911355994     1     1     9     9
 -0.0000000054     1     1     9    12
 -0.0000000077     1     1     9    13
 0.0067334859     1     1    10     2
 -0.0000000060     1     1    10     3
 0.0611521520     1     1    10     4
 0.0000000110     1     1    10     5
 0.6347156681     1     1    10    10
 -0.1986452426     1     1    10    11
 -0.0070346461     1     1    11     2
 -0.0000000005     1     1    11     3
 0.1133247168     1     1    11     4
 -0.0000000087     1     1    11     5
 -0.1986452426     1     1    11    10
 0.5228854584     1     1    11    11
 -0.0431811118     1     1    12     6
 0.2033531075     1     1    12     7
 0.0000000077     1     1    12     8
 -0.0000000054     1     1    12     9
 0.5802623062     1     1    12    12
 0.2033531075     1     1    13     6
 0.0431811118     1     1    13     7
 -0.0000000054     1     1    13     8
 -0.0000000077     1     1    13     9
 0.5802623062     1     1    13    13
 -0.3224129422     1     2     2     1
 -0.0017115829     1     2     2     3
 -0.0000000001     1     2     2     4
 0.0070733984     1     2     2     5
 0.0000000002     1     2     2    10
 -0.0000000002     1     2     2    11
 0.2676530261     1     2     3     4
 0.1355874401     1     2     3    10
 0.0120634515     1     2     3    11
 0.0018096171     1     2     4     1
 0.2676742862     1     2     4     3
 0.1765932843     1     2     4     5
 0.0000000002     1     2     5     1
 0.1766769614     1     2     5     4
 -0.2485014245     1     2     5    10
 0.1976926617     1     2     5    11
 0.2037253677     1     2     6     8
 0.1916469747     1     2     6     9
 -0.1916469747     1     2     7     8
 0.2037253677     1     2     7     9
 0.2036240173     1     2     8     6
 -0.1915516332     1     2     8     7
 -0.1732981691     1     2     8    12
 0.1202722114     1     2     8    13
 0.1915516332     1     2     9     6
 0.2036240173     1     2     9     7
 0.1202722114     1     2     9    12
 0.1732981691     1     2     9    13
 -0.0067334859     1     2    10     1
 0.1355104509     1     2    10     3
 -0.2482071529     1     2    10     5
 0.0070346461     1     2    11     1
 0.0121445503     1     2    11     3
 0.1973828336     1     2    11     5
 -0.1734341809     1     2    12     8
 0.1203666062     1     2    12     9
 0.1203666062     1     2    13     8
 0.1734341809     1     2    13     9
 0.0017115829     1     3     2     2
 -0.0000212601     1     3     2     4
 0.0000769892     1     3     2    10
 -0.0000810988     1     3     2    11
 -0.6304409649     1     3     3     1
 0.0085643182     1     3     3     5
 0.0000000002     1     3     3    10
 -0.0000000002     1     3     3    11
 0.0000000119     1     3     4     1
 -0.2676742862     1     3     4     2
 -0.0026462444     1     3     4     4
 0.0000000001     1     3     4     5
 0.0070777669     1     3     4    10
 -0.0073027503     1     3     4    11
 0.0366353845     1     3     5     1
 0.0000000002     1     3     5     4
 -0.0208643577     1     3     5     5
 -0.0000000005     1     3     5    10
 0.0000000006     1     3     5    11
 -0.0165198514     1     3     6     6
 0.0000000003     1     3     6     8
 0.0000000003     1     3     6     9
 0.0047486628     1     3     6    12
 -0.0223629106     1     3     6    13
 -0.0165198514     1     3     7     7
 -0.0000000003     1     3     7     8
 0.0000000003     1     3     7     9
 -0.0223629106     1     3     7    12
 -0.0047486628     1     3     7    13
 0.0000000003     1     3     8     6
 -0.0000000003     1     3     8     7
 -0.0175981099     1     3     8     8
 -0.0000000004     1     3     8    12
 0.0000000003     1     3     8    13
 0.0000000003     1     3     9     6
 0.0000000003     1     3     9     7
 -0.0175981099     1     3     9     9
 0.0000000003     1     3     9    12
 0.0000000004     1     3     9    13
 0.0000000060     1     3    10     1
 -0.1355104509     1     3    10     2
 0.0080417505     1     3    10     4
 -0.0000000004     1     3    10     5
 -0.0147717686     1     3    10    10
 0.0184695981     1     3    10    11
 0.0000000005     1     3    11     1
 -0.0121445503     1     3    11     2
 -0.0066998238     1     3    11     4
 0.0000000004     1     3    11     5
 0.0128963516     1     3    11    10
 -0.0174393445     1     3    11    11
 0.0029531969     1     3    12     6
 -0.0139075106     1     3    12     7
 -0.0000000003     1     3    12     8
 0.0000000002     1     3    12     9
 -0.0190112363     1     3    12    12
 -0.0139075106     1     3    13     6
 -0.0029531969     1     3    13     7
 0.0000000002     1     3    13     8
 0.0000000003     1     3    13     9
 -0.0190112363     1     3    13    13
 0.0018096171     1     4     2     1
 0.0000000001     1     4     2     2
 0.0000212601     1     4     2     3
 -0.0000836771     1     4     2     5
 0.0000000119     1     4     3     1
 -0.2676530261     1     4     3     2
 -0.0000000001     1     4     3     5
 -0.0009639836     1     4     3    10
 -0.0006029265     1     4     3    11
 -0.6088207853     1     4     4     1
 0.0026462444     1     4     4     3
 -0.0023674177     1     4     4     5
 -0.0000000001     1     4     4    10
 0.0000000001     1     4     4    11
 0.0000000078     1     4     5     1
 -0.1766769614     1     4     5     2
 -0.0000000002     1     4     5     3
 0.0000000004     1     4     5     5
 0.0205311746     1     4     5    10
 -0.0206920872     1     4     5    11
 0.0000000004     1     4     6     6
 -0.0123795505     1     4     6     8
 -0.0116455964     1     4     6     9
 -0.0000000001     1     4     6    12
 0.0000000004     1     4     6    13
 0.0000000004     1     4     7     7
 0.0116455964     1     4     7     8
 -0.0123795505     1     4     7     9
 0.0000000004     1     4     7    12
 0.0000000001     1     4     7    13
 -0.0131531544     1     4     8     6
 0.0123733352     1     4     8     7
 0.0000000004     1     4     8     8
 0.0202268352     1     4     8    12
 -0.0140378067     1     4     8    13
 -0.0123733352     1     4     9     6
 -0.0131531544     1     4     9     7
 0.0000000004     1     4     9     9
 -0.0140378067     1     4     9    12
 -0.0202268352     1     4     9    13
 -0.0611521520     1     4    10     1
 -0.0080417505     1     4    10     3
 0.0175983246     1     4    10     5
 0.0000000005     1     4    10    10
 -0.0000000004     1     4    10    11
 -0.1133247168     1     4    11     1
 0.0066998238     1     4    11     3
 -0.0137710046     1     4    11     5
 -0.0000000004     1     4    11    10
 0.0000000003     1     4    11    11
 0.0000000003     1     4    12     7
 0.0136893839     1     4    12     8
 -0.0095006917     1     4    12     9
 0.0000000005     1     4    12    12
 0.0000000003     1     4    13     6
 -0.0095006917     1     4    13     8
 -0.0136893839     1     4    13     9
 0.0000000005     1     4    13    13
 0.0000000002     1     5     2     1
 -0.0070733984     1     5     2     2
 0.0000836771     1     5     2     4
 -0.0002942716     1     5     2    10
 0.0003098281     1     5     2    11
 0.0366353845     1     5     3     1
 -0.0085643182     1     5     3     3
 0.0000000001     1     5     3     4
 -0.0000000001     1     5     3    10
 0.0000000002     1     5     3    11
 0.0000000078     1     5     4     1
 -0.1765932843     1     5     4     2
 -0.0000000001     1     5     4     3
 0.0023674177     1     5     4     4
 0.0029328500     1     5     4    10
 -0.0069210826     1     5     4    11
 -0.6156303528     1     5     5     1
 0.0208643577     1     5     5     3
 -0.0000000004     1     5     5     4
 -0.0000000001     1     5     5    10
 -0.0000000001     1     5     5    11
 -0.0076264197     1     5     6     6
 0.0010360363     1     5     6    12
 -0.0048790129     1     5     6    13
 -0.0076264197     1     5     7     7
 -0.0048790129     1     5     7    12
 -0.0010360363     1     5     7    13
 0.0000000001     1     5     8     6
 -0.0000000001     1     5     8     7
 -0.0071271002     1     5     8     8
 -0.0000000001     1     5     8    12
 0.0000000001     1     5     8    13
 0.0000000001     1     5     9     6
 0.0000000001     1     5     9     7
 -0.0071271002     1     5     9     9
 0.0000000001     1     5     9    12
 0.0000000001     1     5     9    13
 -0.0000000110     1     5    10     1
 0.2482071529     1     5    10     2
 0.0000000004     1     5    10     3
 -0.0175983246     1     5    10     4
 -0.0160808651     1     5    10    10
 0.0048433729     1     5    10    11
 0.0000000087     1     5    11     1
 -0.1973828336     1     5    11     2
 -0.0000000004     1     5    11     3
 0.0137710046     1     5    11     4
 0.0120000526     1     5    11    10
 0.0006799328     1     5    11    11
 0.0009472020     1     5    12     6
 -0.0044606648     1     5    12     7
 -0.0000000001     1     5    12     8
 -0.0082684725     1     5    12    12
 -0.0044606648     1     5    13     6
 -0.0009472020     1     5    13     7
 0.0000000001     1     5    13     9
 -0.0082684725     1     5    13    13
 0.0001013504     1     6     2     8
 0.0000953415     1     6     2     9
 0.0017954659     1     6     3    12
 -0.0084554000     1     6     3    13
 0.0007736039     1     6     4     8
 0.0007277388     1     6     4     9
 -0.0000000001     1     6     4    12
 0.0000000001     1     6     4    13
 -0.0000000001     1     6     5     8
 -0.0000000001     1     6     5     9
 0.0000888343     1     6     5    12
 -0.0004183481     1     6     5    13
 -0.5756231349     1     6     6     1
 0.0165198514     1     6     6     3
 -0.0000000004     1     6     6     4
 0.0076264197     1     6     6     5
 -0.0000000001     1     6     6    11
 0.0000000090     1     6     8     1
 -0.2036240173     1     6     8     2
 -0.0000000003     1     6     8     3
 0.0131531544     1     6     8     4
 -0.0000000001     1     6     8     5
 0.0073282827     1     6     8    10
 0.0006927450     1     6     8    11
 0.0000000084     1     6     9     1
 -0.1915516332     1     6     9     2
 -0.0000000003     1     6     9     3
 0.0123733352     1     6     9     4
 -0.0000000001     1     6     9     5
 0.0068938062     1     6     9    10
 0.0006516738     1     6     9    11
 -0.0001048247     1     6    10     8
 -0.0000986099     1     6    10     9
 0.0000000001     1     6    10    13
 0.0000822307     1     6    11     8
 0.0000773554     1     6    11     9
 0.0431811118     1     6    12     1
 -0.0029531969     1     6    12     3
 -0.0009472020     1     6    12     5
 -0.2033531075     1     6    13     1
 0.0139075106     1     6    13     3
 -0.0000000003     1     6    13     4
 0.0044606648     1     6    13     5
 -0.0000000001     1     6    13    10
 -0.0000000001     1     6    13    11
 -0.0000953415     1     7     2     8
 0.0001013504     1     7     2     9
 -0.0084554000     1     7     3    12
 -0.0017954659     1     7     3    13
 -0.0007277388     1     7     4     8
 0.0007736039     1     7     4     9
 0.0000000001     1     7     4    12
 0.0000000001     1     7     4    13
 0.0000000001     1     7     5     8
 -0.0000000001     1     7     5     9
 -0.0004183481     1     7     5    12
 -0.0000888343     1     7     5    13
 -0.5756231349     1     7     7     1
 0.0165198514     1     7     7     3
 -0.0000000004     1     7     7     4
 0.0076264197     1     7     7     5
 -0.0000000001     1     7     7    11
 -0.0000000084     1     7     8     1
 0.1915516332     1     7     8     2
 0.0000000003     1     7     8     3
 -0.0123733352     1     7     8     4
 0.0000000001     1     7     8     5
 -0.0068938062     1     7     8    10
 -0.0006516738     1     7     8    11
 0.0000000090     1     7     9     1
 -0.2036240173     1     7     9     2
 -0.0000000003     1     7     9     3
 0.0131531544     1     7     9     4
 -0.0000000001     1     7     9     5
 0.0073282827     1     7     9    10
 0.0006927450     1     7     9    11
 0.0000986099     1     7    10     8
 -0.0001048247     1     7    10     9
 0.0000000001     1     7    10    12
 -0.0000773554     1     7    11     8
 0.0000822307     1     7    11     9
 -0.2033531075     1     7    12     1
 0.0139075106     1     7    12     3
 -0.0000000003     1     7    12     4
 0.0044606648     1     7    12     5
 -0.0000000001     1     7    12    10
 -0.0000000001     1     7    12    11
 -0.0431811118     1     7    13     1
 0.0029531969     1     7    13     3
 0.0009472020     1     7    13     5
 -0.0001013504     1     8     2     6
 0.0000953415     1     8     2     7
 0.0001360118     1     8     2    12
 -0.0000943948     1     8     2    13
 -0.0000000001     1     8     3    12
 0.0000000001     1     8     3    13
 -0.0007736039     1     8     4     6
 0.0007277388     1     8     4     7
 0.0065374513     1     8     4    12
 -0.0045371150     1     8     4    13
 0.0000000001     1     8     5     6
 -0.0000000001     1     8     5     7
 0.0000000001     1     8     5    13
 0.0000000090     1     8     6     1
 -0.2037253677     1     8     6     2
 -0.0000000003     1     8     6     3
 0.0123795505     1     8     6     4
 0.0074331074     1     8     6    10
 0.0006105143     1     8     6    11
 -0.0000000084     1     8     7     1
 0.1916469747     1     8     7     2
 0.0000000003     1     8     7     3
 -0.0116455964     1     8     7     4
 -0.0069924161     1     8     7    10
 -0.0005743184     1     8     7    11
 -0.5911355994     1     8     8     1
 0.0175981099     1     8     8     3
 -0.0000000004     1     8     8     4
 0.0071271002     1     8     8     5
 -0.0000000001     1     8     8    10
 -0.0000000002     1     8     8    11
 0.0001048247     1     8    10     6
 -0.0000986099     1     8    10     7
 0.0020364471     1     8    10    12
 -0.0014133328     1     8    10    13
 -0.0000822307     1     8    11     6
 0.0000773554     1     8    11     7
 -0.0004865071     1     8    11    12
 0.0003376451     1     8    11    13
 -0.0000000077     1     8    12     1
 0.1734341809     1     8    12     2
 0.0000000003     1     8    12     3
 -0.0136893839     1     8    12     4
 0.0000000001     1     8    12     5
 -0.0069421019     1     8    12    10
 -0.0038190394     1     8    12    11
 0.0000000054     1     8    13     1
 -0.1203666062     1     8    13     2
 -0.0000000002     1     8    13     3
 0.0095006917     1     8    13     4
 0.0048179502     1     8    13    10
 0.0026504856     1     8    13    11
 -0.0000953415     1     9     2     6
 -0.0001013504     1     9     2     7
 -0.0000943948     1     9     2    12
 -0.0001360118     1     9     2    13
 0.0000000001     1     9     3    12
 0.0000000001     1     9     3    13
 -0.0007277388     1     9     4     6
 -0.0007736039     1     9     4     7
 -0.0045371150     1     9     4    12
 -0.0065374513     1     9     4    13
 0.0000000001     1     9     5     6
 0.0000000001     1     9     5     7
 0.0000000001     1     9     5    12
 0.0000000084     1     9     6     1
 -0.1916469747     1     9     6     2
 -0.0000000003     1     9     6     3
 0.0116455964     1     9     6     4
 0.0069924161     1     9     6    10
 0.0005743184     1     9     6    11
 0.0000000090     1     9     7     1
 -0.2037253677     1     9     7     2
 -0.0000000003     1     9     7     3
 0.0123795505     1     9     7     4
 0.0074331074     1     9     7    10
 0.0006105143     1     9     7    11
 -0.5911355994     1     9     9     1
 0.0175981099     1     9     9     3
 -0.0000000004     1     9     9     4
 0.0071271002     1     9     9     5
 -0.0000000001     1     9     9    10
 -0.0000000002     1     9     9    11
 0.0000986099     1     9    10     6
 0.0001048247     1     9    10     7
 -0.0014133328     1     9    10    12
 -0.0020364471     1     9    10    13
 -0.0000773554     1     9    11     6
 -0.0000822307     1     9    11     7
 0.0003376451     1     9    11    12
 0.0004865071     1     9    11    13
 0.0000000054     1     9    12     1
 -0.1203666062     1     9    12     2
 -0.0000000002     1     9    12     3
 0.0095006917     1     9    12     4
 0.0048179502     1     9    12    10
 0.0026504856     1     9    12    11
 0.0000000077     1     9    13     1
 -0.1734341809     1     9    13     2
 -0.0000000003     1     9    13     3
 0.0136893839     1     9    13     4
 -0.0000000001     1     9    13     5
 0.0069421019     1     9    13    10
 0.0038190394     1     9    13    11
 -0.0067334859     1    10     2     1
 -0.0000000002     1    10     2     2
 -0.0000769892     1    10     2     3
 0.0002942716     1    10     2     5
 0.0000000060     1    10     3     1
 -0.1355874401     1    10     3     2
 -0.0000000002     1    10     3     3
 0.0009639836     1    10     3     4
 0.0000000001     1    10     3     5
 0.0055732465     1    10     3    11
 -0.0611521520     1    10     4     1
 -0.0070777669     1    10     4     3
 0.0000000001     1    10     4     4
 -0.0029328500     1    10     4     5
 -0.0000000110     1    10     5     1
 0.2485014245     1    10     5     2
 0.0000000005     1    10     5     3
 -0.0205311746     1    10     5     4
 0.0000000001     1    10     5     5
 -0.0071566797     1    10     5    11
 -0.0074331074     1    10     6     8
 -0.0069924161     1    10     6     9
 0.0000000002     1    10     6    13
 0.0069924161     1    10     7     8
 -0.0074331074     1    10     7     9
 0.0000000002     1    10     7    12
 -0.0073282827     1    10     8     6
 0.0068938062     1    10     8     7
 0.0000000001     1    10     8     8
 0.0089785490     1    10     8    12
 -0.0062312830     1    10     8    13
 -0.0068938062     1    10     9     6
 -0.0073282827     1    10     9     7
 0.0000000001     1    10     9     9
 -0.0062312830     1    10     9    12
 -0.0089785490     1    10     9    13
 -0.6347156681     1    10    10     1
 0.0147717686     1    10    10     3
 -0.0000000005     1    10    10     4
 0.0160808651     1    10    10     5
 -0.0000000003     1    10    10    11
 0.1986452426     1    10    11     1
 -0.0128963516     1    10    11     3
 0.0000000004     1    10    11     4
 -0.0120000526     1    10    11     5
 0.0000000003     1    10    11    11
 0.0000000001     1    10    12     7
 0.0069421019     1    10    12     8
 -0.0048179502     1    10    12     9
 0.0000000001     1    10    12    12
 0.0000000001     1    10    13     6
 -0.0048179502     1    10    13     8
 -0.0069421019     1    10    13     9
 0.0000000001     1    10    13    13
 0.0070346461     1    11     2     1
 0.0000000002     1    11     2     2
 0.0000810988     1    11     2     3
 -0.0003098281     1    11     2     5
 0.0000000005     1    11     3     1
 -0.0120634515     1    11     3     2
 0.0000000002     1    11     3     3
 0.0006029265     1    11     3     4
 -0.0000000002     1    11     3     5
 -0.0055732465     1    11     3    10
 -0.1133247168     1    11     4     1
 0.0073027503     1    11     4     3
 -0.0000000001     1    11     4     4
 0.0069210826     1    11     4     5
 0.0000000087     1    11     5     1
 -0.1976926617     1    11     5     2
 -0.0000000006     1    11     5     3
 0.0206920872     1    11     5     4
 0.0000000001     1    11     5     5
 0.0071566797     1    11     5    10
 0.0000000001     1    11     6     6
 -0.0006105143     1    11     6     8
 -0.0005743184     1    11     6     9
 0.0000000001     1    11     6    13
 0.0000000001     1    11     7     7
 0.0005743184     1    11     7     8
 -0.0006105143     1    11     7     9
 0.0000000001     1    11     7    12
 -0.0006927450     1    11     8     6
 0.0006516738     1    11     8     7
 0.0000000002     1    11     8     8
 0.0033325323     1    11     8    12
 -0.0023128405     1    11     8    13
 -0.0006516738     1    11     9     6
 -0.0006927450     1    11     9     7
 0.0000000002     1    11     9     9
 -0.0023128405     1    11     9    12
 -0.0033325323     1    11     9    13
 0.1986452426     1    11    10     1
 -0.0184695981     1    11    10     3
 0.0000000004     1    11    10     4
 -0.0048433729     1    11    10     5
 0.0000000003     1    11    10    10
 -0.5228854584     1    11    11     1
 0.0174393445     1    11    11     3
 -0.0000000003     1    11    11     4
 -0.0006799328     1    11    11     5
 -0.0000000003     1    11    11    10
 0.0000000001     1    11    12     7
 0.0038190394     1    11    12     8
 -0.0026504856     1    11    12     9
 0.0000000002     1    11    12    12
 0.0000000001     1    11    13     6
 -0.0026504856     1    11    13     8
 -0.0038190394     1    11    13     9
 0.0000000002     1    11    13    13
 -0.0001360118     1    12     2     8
 0.0000943948     1    12     2     9
 -0.0017954659     1    12     3     6
 0.0084554000     1    12     3     7
 0.0000000001     1    12     3     8
 -0.0000000001     1    12     3     9
 0.0000000001     1    12     4     6
 -0.0000000001     1    12     4     7
 -0.0065374513     1    12     4     8
 0.0045371150     1    12     4     9
 -0.0000888343     1    12     5     6
 0.0004183481     1    12     5     7
 -0.0000000001     1    12     5     9
 0.0431811118     1    12     6     1
 -0.0047486628     1    12     6     3
 0.0000000001     1    12     6     4
 -0.0010360363     1    12     6     5
 -0.2033531075     1    12     7     1
 0.0223629106     1    12     7     3
 -0.0000000004     1    12     7     4
 0.0048790129     1    12     7     5
 -0.0000000002     1    12     7    10
 -0.0000000001     1    12     7    11
 -0.0000000077     1    12     8     1
 0.1732981691     1    12     8     2
 0.0000000004     1    12     8     3
 -0.0202268352     1    12     8     4
 0.0000000001     1    12     8     5
 -0.0089785490     1    12     8    10
 -0.0033325323     1    12     8    11
 0.0000000054     1    12     9     1
 -0.1202722114     1    12     9     2
 -0.0000000003     1    12     9     3
 0.0140378067     1    12     9     4
 -0.0000000001     1    12     9     5
 0.0062312830     1    12     9    10
 0.0023128405     1    12     9    11
 -0.0000000001     1    12    10     7
 -0.0020364471     1    12    10     8
 0.0014133328     1    12    10     9
 0.0004865071     1    12    11     8
 -0.0003376451     1    12    11     9
 -0.5802623062     1    12    12     1
 0.0190112363     1    12    12     3
 -0.0000000005     1    12    12     4
 0.0082684725     1    12    12     5
 -0.0000000001     1    12    12    10
 -0.0000000002     1    12    12    11
 0.0000943948     1    13     2     8
 0.0001360118     1    13     2     9
 0.0084554000     1    13     3     6
 0.0017954659     1    13     3     7
 -0.0000000001     1    13     3     8
 -0.0000000001     1    13     3     9
 -0.0000000001     1    13     4     6
 -0.0000000001     1    13     4     7
 0.0045371150     1    13     4     8
 0.0065374513     1    13     4     9
 0.0004183481     1    13     5     6
 0.0000888343     1    13     5     7
 -0.0000000001     1    13     5     8
 -0.2033531075     1    13     6     1
 0.0223629106     1    13     6     3
 -0.0000000004     1    13     6     4
 0.0048790129     1    13     6     5
 -0.0000000002     1    13     6    10
 -0.0000000001     1    13     6    11
 -0.0431811118     1    13     7     1
 0.0047486628     1    13     7     3
 -0.0000000001     1    13     7     4
 0.0010360363     1    13     7     5
 0.0000000054     1    13     8     1
 -0.1202722114     1    13     8     2
 -0.0000000003     1    13     8     3
 0.0140378067     1    13     8     4
 -0.0000000001     1    13     8     5
 0.0062312830     1    13     8    10
 0.0023128405     1    13     8    11
 0.0000000077     1    13     9     1
 -0.1732981691     1    13     9     2
 -0.0000000004     1    13     9     3
 0.0202268352     1    13     9     4
 -0.0000000001     1    13     9     5
 0.0089785490     1    13     9    10
 0.0033325323     1    13     9    11
 -0.0000000001     1    13    10     6
 0.0014133328     1    13    10     8
 0.0020364471     1    13    10     9
 -0.0003376451     1    13    11     8
 -0.0004865071     1    13    11     9
 -0.5802623062     1    13    13     1
 0.0190112363     1    13    13     3
 -0.0000000005     1    13    13     4
 0.0082684725     1    13    13     5
 -0.0000000001     1    13    13    10
 -0.0000000002     1    13    13    11
 -0.3224129422     2     1     1     2
 0.0018096171     2     1     1     4
 0.0000000002     2     1     1     5
 -0.0067334859     2     1     1    10
 0.0070346461     2     1     1    11
 -0.0017115829     2     1     3     2
 0.2676742862     2     1     3     4
 0.1355104509     2     1     3    10
 0.0121445503     2     1     3    11
 -0.0000000001     2     1     4     2
 0.2676530261     2     1     4     3
 0.1766769614     2     1     4     5
 0.0070733984     2     1     5     2
 0.1765932843     2     1     5     4
 -0.2482071529     2     1     5    10
 0.1973828336     2     1     5    11
 0.2036240173     2     1     6     8
 0.1915516332     2     1     6     9
 -0.1915516332     2     1     7     8
 0.2036240173     2     1     7     9
 0.2037253677     2     1     8     6
 -0.1916469747     2     1     8     7
 -0.1734341809     2     1     8    12
 0.1203666062     2     1     8    13
 0.1916469747     2     1     9     6
 0.2037253677     2     1     9     7
 0.1203666062     2     1     9    12
 0.1734341809     2     1     9    13
 0.0000000002     2     1    10     2
 0.1355874401     2     1    10     3
 -0.2485014245     2     1    10     5
 -0.0000000002     2     1    11     2
 0.0120634515     2     1    11     3
 0.1976926617     2     1    11     5
 -0.1732981691     2     1    12     8
 0.1202722114     2     1    12     9
 0.1202722114     2     1    13     8
 0.1732981691     2     1    13     9
 0.3224129422     2     2     1     1
 0.0017115829     2     2     1     3
 0.0000000001     2     2     1     4
 -0.0070733984     2     2     1     5
 -0.0000000002     2     2     1    10
 0.0000000002     2     2     1    11
 0.0017115829     2     2     3     1
 0.6304488942     2     2     3     3
 0.0000000119     2     2     3     4
 -0.0366954226     2     2     3     5
 0.0000000060     2     2     3    10
 0.0000000005     2     2     3    11
 0.0000000001     2     2     4     1
 0.0000000119     2     2     4     3
 0.6088061794     2     2     4     4
 0.0000000078     2     2     4     5
 0.0612153546     2     2     4    10
 0.1132553195     2     2     4    11
 -0.0070733984     2     2     5     1
 -0.0366954226     2     2     5     3
 0.0000000078     2     2     5     4
 0.6159432042     2     2     5     5
 -0.0000000110     2     2     5    10
 0.0000000087     2     2     5    11
 0.5757626813     2     2     6     6
 0.0000000090     2     2     6     8
 0.0000000084     2     2     6     9
 -0.0432168441     2     2     6    12
 0.2035213814     2     2     6    13
 0.5757626813     2     2     7     7
 -0.0000000084     2     2     7     8
 0.0000000090     2     2     7     9
 0.2035213814     2     2     7    12
 0.0432168441     2     2     7    13
 0.0000000090     2     2     8     6
 -0.0000000084     2     2     8     7
 0.5910010326     2     2     8     8
 -0.0000000077     2     2     8    12
 0.0000000053     2     2     8    13
 0.0000000084     2     2     9     6
 0.0000000090     2     2     9     7
 0.5910010326     2     2     9     9
 0.0000000053     2     2     9    12
 0.0000000077     2     2     9    13
 -0.0000000002     2     2    10     1
 0.0000000060     2     2    10     3
 0.0612153546     2     2    10     4
 -0.0000000110     2     2    10     5
 0.6344211666     2     2    10    10
 -0.1983463484     2     2    10    11
 0.0000000002     2     2    11     1
 0.0000000005     2     2    11     3
 0.1132553195     2     2    11     4
 0.0000000087     2     2    11     5
 -0.1983463484     2     2    11    10
 0.5225841135     2     2    11    11
 -0.0432168441     2     2    12     6
 0.2035213814     2     2    12     7
 -0.0000000077     2     2    12     8
 0.0000000053     2     2    12     9
 0.5804664323     2     2    12    12