&FCI NORB=  8,NELEC= 10,MS2=0,
 ORBSYM=1,1,1,1,1,1,1,1
 ISYM=1,
&END
 0.2693361818     1     1     2     2
 0.2693361658     1     1     3     3
 -0.0000000203     1     1     3     8
 0.2140811528     1     1     4     4
 0.2140811829     1     1     5     5
 0.2512868015     1     1     6     6
 0.2512867944     1     1     7     7
 -0.0000000203     1     1     8     3
 0.1878383188     1     1     8     8
 -0.2693361818     1     2     2     1
 -0.0000000142     1     2     2     6
 0.0023976140     1     2     2     7
 0.0023976129     1     2     3     6
 0.0000000142     1     2     3     7
 0.0000000001     1     2     6     3
 0.0005941410     1     2     6     8
 -0.0000000017     1     2     7     8
 -0.0012046000     1     2     8     6
 0.0000000034     1     2     8     7
 0.0023976126     1     3     2     6
 0.0000000142     1     3     2     7
 -0.2693361658     1     3     3     1
 0.0000000142     1     3     3     6
 -0.0023976213     1     3     3     7
 -0.0000000001     1     3     6     2
 0.0000000017     1     3     6     8
 0.0005941421     1     3     7     8
 0.0000000203     1     3     8     1
 -0.0000000034     1     3     8     6
 -0.0012045997     1     3     8     7
 -0.2140811528     1     4     4     1
 -0.0000000021     1     4     4     6
 0.0268345760     1     4     4     7
 0.0268345795     1     4     5     6
 0.0000000021     1     4     5     7
 0.0000000144     1     4     6     5
 0.0268345658     1     5     4     6
 0.0000000021     1     5     4     7
 -0.2140811829     1     5     5     1
 0.0000000021     1     5     5     6
 -0.0268345628     1     5     5     7
 -0.0000000144     1     5     6     4
 0.0000000142     1     6     2     2
 -0.0023976126     1     6     2     3
 0.0021515661     1     6     2     8
 -0.0023976129     1     6     3     2
 -0.0000000142     1     6     3     3
 0.0000000061     1     6     3     8
 0.0000000021     1     6     4     4
 -0.0268345658     1     6     4     5
 -0.0268345795     1     6     5     4
 -0.0000000021     1     6     5     5
 -0.2512868015     1     6     6     1
 0.0012046000     1     6     8     2
 0.0000000034     1     6     8     3
 -0.0023976140     1     7     2     2
 -0.0000000142     1     7     2     3
 -0.0000000061     1     7     2     8
 -0.0000000142     1     7     3     2
 0.0023976213     1     7     3     3
 0.0021515670     1     7     3     8
 -0.0268345760     1     7     4     4
 -0.0000000021     1     7     4     5
 -0.0000000021     1     7     5     4
 0.0268345628     1     7     5     5
 -0.2512867944     1     7     7     1
 -0.0000000034     1     7     8     2
 0.0012045997     1     7     8     3
 0.0000000100     1     7     8     8
 -0.0021515661     1     8     2     6
 0.0000000061     1     8     2     7
 0.0000000203     1     8     3     1
 -0.0000000061     1     8     3     6
 -0.0021515670     1     8     3     7
 -0.0005941410     1     8     6     2
 -0.0000000017     1     8     6     3
 0.0000000017     1     8     7     2
 -0.0005941421     1     8     7     3
 -0.1878383188     1     8     8     1
 -0.0000000100     1     8     8     7
 -0.2693361818     2     1     1     2
 0.0000000001     2     1     3     6
 -0.0000000142     2     1     6     2
 0.0023976129     2     1     6     3
 -0.0012046000     2     1     6     8
 0.0023976140     2     1     7     2
 0.0000000142     2     1     7     3
 0.0000000034     2     1     7     8
 0.0005941410     2     1     8     6
 -0.0000000017     2     1     8     7
 0.2693361818     2     2     1     1
 0.0000000142     2     2     1     6
 -0.0023976140     2     2     1     7
 0.2578296122     2     2     3     3
 -0.0000000202     2     2     3     8
 0.2652350222     2     2     4     4
 0.0000000100     2     2     4     5
 0.0000000100     2     2     5     4
 0.2686585748     2     2     5     5
 0.0000000142     2     2     6     1
 0.2614791984     2     2     6     6
 -0.0000000107     2     2     6     7
 -0.0023976140     2     2     7     1
 -0.0000000107     2     2     7     6
 0.2576774336     2     2     7     7
 -0.0000000202     2     2     8     3
 0.1892658138     2     2     8     8
 -0.0023976126     2     3     1     6
 -0.0000000142     2     3     1     7
 -0.2578296122     2     3     3     2
 -0.0000000100     2     3     4     4
 -0.0020826326     2     3     4     5
 -0.0013409228     2     3     5     4
 0.0000000100     2     3     5     5
 -0.0023976129     2     3     6     1
 0.0000000107     2     3     6     6
 0.0010251881     2     3     6     7
 -0.0000000142     2     3     7     1
 0.0027765620     2     3     7     6
 -0.0000000107     2     3     7     7
 0.0000000202     2     3     8     2
 -0.0000715150     2     4     3     5
 -0.2652350222     2     4     4     2
 0.0000000100     2     4     4     3
 0.0000000029     2     4     4     8
 -0.0000000100     2     4     5     2
 0.0013409228     2     4     5     3
 -0.0009934474     2     4     5     8
 -0.0000000006     2     4     8     5
 0.0000715150     2     5     3     4
 -0.0000000100     2     5     4     2
 0.0020826326     2     5     4     3
 -0.0009934469     2     5     4     8
 -0.2686585748     2     5     5     2
 -0.0000000100     2     5     5     3
 -0.0000000029     2     5     5     8
 0.0000000006     2     5     8     4
 -0.0000000142     2     6     1     2
 0.0023976126     2     6     1     3
 -0.0021515661     2     6     1     8
 -0.0000000001     2     6     3     1
 -0.0007791476     2     6     3     7
 -0.2614791984     2     6     6     2
 -0.0000000107     2     6     6     3
 -0.0000000009     2     6     6     8
 0.0000000107     2     6     7     2
 -0.0027765620     2     6     7     3
 0.0002708304     2     6     7     8
 -0.0005941410     2     6     8     1
 0.0000000014     2     6     8     7
 0.0023976140     2     7     1     2
 0.0000000142     2     7     1     3
 0.0000000061     2     7     1     8
 0.0007791476     2     7     3     6
 0.0000000107     2     7     6     2
 -0.0010251881     2     7     6     3
 0.0002708290     2     7     6     8
 -0.2576774336     2     7     7     2
 0.0000000107     2     7     7     3
 0.0000000009     2     7     7     8
 0.0000000017     2     7     8     1
 -0.0000000014     2     7     8     6
 0.0021515661     2     8     1     6
 -0.0000000061     2     8     1     7
 0.0000000202     2     8     3     2
 -0.0000000029     2     8     4     4
 0.0009934469     2     8     4     5
 0.0009934474     2     8     5     4
 0.0000000029     2     8     5     5
 0.0012046000     2     8     6     1
 0.0000000009     2     8     6     6
 -0.0002708290     2     8     6     7
 -0.0000000034     2     8     7     1
 -0.0002708304     2     8     7     6
 -0.0000000009     2     8     7     7
 -0.1892658138     2     8     8     2
 -0.2693361658     3     1     1     3
 0.0000000203     3     1     1     8
 -0.0000000001     3     1     2     6
 0.0023976126     3     1     6     2
 0.0000000142     3     1     6     3
 -0.0000000034     3     1     6     8
 0.0000000142     3     1     7     2
 -0.0023976213     3     1     7     3
 -0.0012045997     3     1     7     8
 0.0000000017     3     1     8     6
 0.0005941421     3     1     8     7
 -0.0023976129     3     2     1     6
 -0.0000000142     3     2     1     7
 -0.2578296122     3     2     2     3
 0.0000000202     3     2     2     8
 -0.0000000100     3     2     4     4
 -0.0013409228     3     2     4     5
 -0.0020826326     3     2     5     4
 0.0000000100     3     2     5     5
 -0.0023976126     3     2     6     1
 0.0000000107     3     2     6     6
 0.0027765620     3     2     6     7
 -0.0000000142     3     2     7     1
 0.0010251881     3     2     7     6
 -0.0000000107     3     2     7     7
 0.2693361658     3     3     1     1
 -0.0000000142     3     3     1     6
 0.0023976213     3     3     1     7
 0.2578296122     3     3     2     2
 0.2686585671     3     3     4     4
 -0.0000000100     3     3     4     5
 -0.0000000100     3     3     5     4
 0.2652349955     3     3     5     5
 -0.0000000142     3     3     6     1
 0.2576774278     3     3     6     6
 0.0000000107     3     3     6     7
 0.0023976213     3     3     7     1
 0.0000000107     3     3     7     6
 0.2614791774     3     3     7     7
 0.1892658257     3     3     8     8
 0.0000715150     3     4     2     5
 0.0000000100     3     4     4     2
 -0.2686585671     3     4     4     3
 -0.0009934260     3     4     4     8
 0.0020826326     3     4     5     2
 0.0000000100     3     4     5     3
 -0.0000000029     3     4     5     8
 -0.0000715150     3     5     2     4
 0.0013409228     3     5     4     2
 0.0000000100     3     5     4     3
 -0.0000000029     3     5     4     8
 -0.0000000100     3     5     5     2
 -0.2652349955     3     5     5     3
 0.0009934678     3     5     5     8
 0.0023976129     3     6     1     2
 0.0000000142     3     6     1     3
 -0.0000000061     3     6     1     8
 0.0000000001     3     6     2     1
 0.0007791476     3     6     2     7
 -0.0000000107     3     6     6     2
 -0.2576774278     3     6     6     3
 0.0002708483     3     6     6     8
 -0.0010251881     3     6     7     2
 -0.0000000107     3     6     7     3
 0.0000000009     3     6     7     8
 -0.0000000017     3     6     8     1
 0.0000000142     3     7     1     2
 -0.0023976213     3     7     1     3
 -0.0021515670     3     7     1     8
 -0.0007791476     3     7     2     6
 -0.0027765620     3     7     6     2
 -0.0000000107     3     7     6     3
 0.0000000009     3     7     6     8
 0.0000000107     3     7     7     2
 -0.2614791774     3     7     7     3
 -0.0002708120     3     7     7     8
 -0.0005941421     3     7     8     1
 -0.0000000203     3     8     1     1
 0.0000000061     3     8     1     6
 0.0021515670     3     8     1     7
 -0.0000000202     3     8     2     2
 0.0009934260     3     8     4     4
 0.0000000029     3     8     4     5
 0.0000000029     3     8     5     4
 -0.0009934678     3     8     5     5
 0.0000000034     3     8     6     1
 -0.0002708483     3     8     6     6
 -0.0000000009     3     8     6     7
 0.0012045997     3     8     7     1
 -0.0000000009     3     8     7     6
 0.0002708120     3     8     7     7
 -0.1892658257     3     8     8     3
 -0.2140811528     4     1     1     4
 0.0000000144     4     1     5     6
 -0.0000000021     4     1     6     4
 0.0268345795     4     1     6     5
 0.0268345760     4     1     7     4
 0.0000000021     4     1     7     5
 -0.2652350222     4     2     2     4
 -0.0000000100     4     2     2     5
 0.0000000100     4     2     3     4
 0.0013409228     4     2     3     5
 -0.0000715150     4     2     5     3
 -0.0000000006     4     2     5     8
 0.0000000029     4     2     8     4
 -0.0009934474     4     2     8     5
 0.0000000100     4     3     2     4
 0.0020826326     4     3     2     5
 -0.2686585671     4     3     3     4
 0.0000000100     4     3     3     5
 0.0000715150     4     3     5     2
 -0.0009934260     4     3     8     4
 -0.0000000029     4     3     8     5
 0.2140811528     4     4     1     1
 0.0000000021     4     4     1     6
 -0.0268345760     4     4     1     7
 0.2652350222     4     4     2     2
 -0.0000000100     4     4     2     3
 -0.0000000029     4     4     2     8
 -0.0000000100     4     4     3     2
 0.2686585671     4     4     3     3
 0.0009934260     4     4     3     8
 0.2505466726     4     4     5     5
 0.0000000021     4     4     6     1
 0.2299807807     4     4     6     6
 -0.0000000008     4     4     6     7
 -0.0268345760     4     4     7     1
 -0.0000000008     4     4     7     6
 0.2390623842     4     4     7     7
 -0.0000000029     4     4     8     2
 0.0009934260     4     4     8     3
 0.1877393316     4     4     8     8
 -0.0268345658     4     5     1     6
 -0.0000000021     4     5     1     7
 0.0000000100     4     5     2     2
 -0.0020826326     4     5     2     3
 0.0009934469     4     5     2     8
 -0.0013409228     4     5     3     2
 -0.0000000100     4     5     3     3
 0.0000000029     4     5     3     8
 -0.2505466726     4     5     5     4
 -0.0268345795     4     5     6     1
 0.0000000008     4     5     6     6
 -0.0279437548     4     5     6     7
 -0.0000000021     4     5     7     1
 0.0188621425     4     5     7     6
 -0.0000000008     4     5     7     7
 0.0009934474     4     5     8     2
 0.0000000029     4     5     8     3
 -0.0000000021     4     6     1     4
 0.0268345658     4     6     1     5
 -0.0000000144     4     6     5     1
 -0.0456070683     4     6     5     7
 -0.2299807807     4     6     6     4
 -0.0000000008     4     6     6     5
 0.0000000008     4     6     7     4
 -0.0188621425     4     6     7     5
 0.0268345760     4     7     1     4
 0.0000000021     4     7     1     5
 0.0456070683     4     7     5     6
 0.0000000008     4     7     6     4
 0.0279437548     4     7     6     5
 -0.2390623842     4     7     7     4
 0.0000000008     4     7     7     5
 0.0000000029     4     8     2     4
 -0.0009934469     4     8     2     5
 -0.0009934260     4     8     3     4
 -0.0000000029     4     8     3     5
 0.0000000006     4     8     5     2
 -0.1877393316     4     8     8     4
 -0.2140811829     5     1     1     5
 -0.0000000144     5     1     4     6
 0.0268345658     5     1     6     4
 0.0000000021     5     1     6     5
 0.0000000021     5     1     7     4
 -0.0268345628     5     1     7     5
 -0.0000000100     5     2     2     4
 -0.2686585748     5     2     2     5
 0.0020826326     5     2     3     4
 -0.0000000100     5     2     3     5
 0.0000715150     5     2     4     3
 0.0000000006     5     2     4     8
 -0.0009934469     5     2     8     4
 -0.0000000029     5     2     8     5
 0.0013409228     5     3     2     4
 -0.0000000100     5     3     2     5
 0.0000000100     5     3     3     4
 -0.2652349955     5     3     3     5
 -0.0000715150     5     3     4     2
 -0.0000000029     5     3     8     4
 0.0009934678     5     3     8     5
 -0.0268345795     5     4     1     6
 -0.0000000021     5     4     1     7
 0.0000000100     5     4     2     2
 -0.0013409228     5     4     2     3
 0.0009934474     5     4     2     8
 -0.0020826326     5     4     3     2
 -0.0000000100     5     4     3     3
 0.0000000029     5     4     3     8
 -0.2505466726     5     4     4     5
 -0.0268345658     5     4     6     1
 0.0000000008     5     4     6     6
 0.0188621425     5     4     6     7
 -0.0000000021     5     4     7     1
 -0.0279437548     5     4     7     6
 -0.0000000008     5     4     7     7
 0.0009934469     5     4     8     2
 0.0000000029     5     4     8     3
 0.2140811829     5     5     1     1
 -0.0000000021     5     5     1     6
 0.0268345628     5     5     1     7
 0.2686585748     5     5     2     2
 0.0000000100     5     5     2     3
 0.0000000029     5     5     2     8
 0.0000000100     5     5     3     2
 0.2652349955     5     5     3     3
 -0.0009934678     5     5     3     8
 0.2505466726     5     5     4     4
 -0.0000000021     5     5     6     1
 0.2390623806     5     5     6     6
 0.0000000008     5     5     6     7
 0.0268345628     5     5     7     1
 0.0000000008     5     5     7     6
 0.2299807716     5     5     7     7
 0.0000000029     5     5     8     2
 -0.0009934678     5     5     8     3
 0.1877393129     5     5     8     8
 0.0268345795     5     6     1     4
 0.0000000021     5     6     1     5
 0.0000000144     5     6     4     1
 0.0456070683     5     6     4     7
 -0.0000000008     5     6     6     4
 -0.2390623806     5     6     6     5
 0.0279437548     5     6     7     4
 -0.0000000008     5     6     7     5
 0.0000000021     5     7     1     4
 -0.0268345628     5     7     1     5
 -0.0456070683     5     7     4     6
 -0.0188621425     5     7     6     4
 -0.0000000008     5     7     6     5
 0.0000000008     5     7     7     4
 -0.2299807716     5     7     7     5
 -0.0009934474     5     8     2     4
 -0.0000000029     5     8     2     5
 -0.0000000029     5     8     3     4
 0.0009934678     5     8     3     5
 -0.0000000006     5     8     4     2
 -0.1877393129     5     8     8     5
 -0.2512868015     6     1     1     6
 0.0000000142     6     1     2     2
 -0.0023976129     6     1     2     3
 0.0012046000     6     1     2     8
 -0.0023976126     6     1     3     2
 -0.0000000142     6     1     3     3
 0.0000000034     6     1     3     8
 0.0000000021     6     1     4     4
 -0.0268345795     6     1     4     5
 -0.0268345658     6     1     5     4
 -0.0000000021     6     1     5     5
 0.0021515661     6     1     8     2
 0.0000000061     6     1     8     3
 -0.0000000001     6     2     1     3
 -0.0005941410     6     2     1     8
 -0.0000000142     6     2     2     1
 -0.2614791984     6     2     2     6
 0.0000000107     6     2     2     7
 0.0023976126     6     2     3     1
 -0.0000000107     6     2     3     6
 -0.0027765620     6     2     3     7
 -0.0007791476     6     2     7     3
 0.0000000014     6     2     7     8
 -0.0021515661     6     2     8     1
 -0.0000000009     6     2     8     6
 0.0002708304     6     2     8     7
 0.0000000001     6     3     1     2
 -0.0000000017     6     3     1     8
 0.0023976129     6     3     2     1
 -0.0000000107     6     3     2     6
 -0.0010251881     6     3     2     7
 0.0000000142     6     3     3     1
 -0.2576774278     6     3     3     6
 -0.0000000107     6     3     3     7
 0.0007791476     6     3     7     2
 -0.0000000061     6     3     8     1
 0.0002708483     6     3     8     6
 0.0000000009     6     3     8     7
 -0.0000000144     6     4     1     5
 -0.0000000021     6     4     4     1
 -0.2299807807     6     4     4     6
 0.0000000008     6     4     4     7
 0.0268345658     6     4     5     1
 -0.0000000008     6     4     5     6
 -0.0188621425     6     4     5     7
 -0.0456070683     6     4     7     5
 0.0000000144     6     5     1     4
 0.0268345795     6     5     4     1
 -0.0000000008     6     5     4     6
 0.0279437548     6     5     4     7
 0.0000000021     6     5     5     1
 -0.2390623806     6     5     5     6
 -0.0000000008     6     5     5     7
 0.0456070683     6     5     7     4
 0.2512868015     6     6     1     1
 0.2614791984     6     6     2     2
 0.0000000107     6     6     2     3
 0.0000000009     6     6     2     8
 0.0000000107     6     6     3     2
 0.2576774278     6     6     3     3
 -0.0002708483     6     6     3     8
 0.2299807807     6     6     4     4
 0.0000000008     6     6     4     5
 0.0000000008     6     6     5     4
 0.2390623806     6     6     5     5
 0.2441618284     6     6     7     7
 0.0000000009     6     6     8     2
 -0.0002708483     6     6     8     3
 0.1840721935     6     6     8     8
 -0.0000000107     6     7     2     2
 0.0010251881     6     7     2     3
 -0.0002708290     6     7     2     8
 0.0027765620     6     7     3     2
 0.0000000107     6     7     3     3
 -0.0000000009     6     7     3     8
 -0.0000000008     6     7     4     4
 -0.0279437548     6     7     4     5
 0.0188621425     6     7     5     4
 0.0000000008     6     7     5     5
 -0.2441618284     6     7     7     6
 -0.0002708304     6     7     8     2
 -0.0000000009     6     7     8     3
 0.0005941410     6     8     1     2
 0.0000000017     6     8     1     3
 -0.0012046000     6     8     2     1
 -0.0000000009     6     8     2     6
 0.0002708290     6     8     2     7
 -0.0000000034     6     8     3     1
 0.0002708483     6     8     3     6
 0.0000000009     6     8     3     7
 -0.0000000014     6     8     7     2
 -0.1840721935     6     8     8     6
 -0.2512867944     7     1     1     7
 -0.0023976140     7     1     2     2
 -0.0000000142     7     1     2     3
 -0.0000000034     7     1     2     8
 -0.0000000142     7     1     3     2
 0.0023976213     7     1     3     3
 0.0012045997     7     1     3     8
 -0.0268345760     7     1     4     4
 -0.0000000021     7     1     4     5
 -0.0000000021     7     1     5     4
 0.0268345628     7     1     5     5
 -0.0000000061     7     1     8     2
 0.0021515670     7     1     8     3
 0.0000000100     7     1     8     8
 0.0000000017     7     2     1     8
 0.0023976140     7     2     2     1
 0.0000000107     7     2     2     6
 -0.2576774336     7     2     2     7
 0.0000000142     7     2     3     1
 -0.0010251881     7     2     3     6
 0.0000000107     7     2     3     7
 0.0007791476     7     2     6     3
 -0.0000000014     7     2     6     8
 0.0000000061     7     2     8     1
 0.0002708290     7     2     8     6
 0.0000000009     7     2     8     7
 -0.0005941421     7     3     1     8
 0.0000000142     7     3     2     1
 -0.0027765620     7     3     2     6
 0.0000000107     7     3     2     7
 -0.0023976213     7     3     3     1
 -0.0000000107     7     3     3     6
 -0.2614791774     7     3     3     7
 -0.0007791476     7     3     6     2
 -0.0021515670     7     3     8     1
 0.0000000009     7     3     8     6
 -0.0002708120     7     3     8     7
 0.0268345760     7     4     4     1
 0.0000000008     7     4     4     6
 -0.2390623842     7     4     4     7
 0.0000000021     7     4     5     1
 0.0279437548     7     4     5     6
 0.0000000008     7     4     5     7
 0.0456070683     7     4     6     5
 0.0000000021     7     5     4     1
 -0.0188621425     7     5     4     6
 0.0000000008     7     5     4     7
 -0.0268345628     7     5     5     1
 -0.0000000008     7     5     5     6
 -0.2299807716     7     5     5     7
 -0.0456070683     7     5     6     4
 -0.0000000107     7     6     2     2
 0.0027765620     7     6     2     3
 -0.0002708304     7     6     2     8
 0.0010251881     7     6     3     2
 0.0000000107     7     6     3     3
 -0.0000000009     7     6     3     8
 -0.0000000008     7     6     4     4
 0.0188621425     7     6     4     5
 -0.0279437548     7     6     5     4
 0.0000000008     7     6     5     5
 -0.2441618284     7     6     6     7
 -0.0002708290     7     6     8     2
 -0.0000000009     7     6     8     3
 0.2512867944     7     7     1     1
 0.2576774336     7     7     2     2
 -0.0000000107     7     7     2     3
 -0.0000000009     7     7     2     8
 -0.0000000107     7     7     3     2
 0.2614791774     7     7     3     3
 0.0002708120     7     7     3     8
 0.2390623842     7     7     4     4
 -0.0000000008     7     7     4     5
 -0.0000000008     7     7     5     4
 0.2299807716     7     7     5     5
 0.2441618284     7     7     6     6
 -0.0000000009     7     7     8     2
 0.0002708120     7     7     8     3
 0.1840722021     7     7     8     8
 -0.0000000017     7     8     1     2
 0.0005941421     7     8     1     3
 0.0000000034     7     8     2     1
 0.0002708304     7     8     2     6
 0.0000000009     7     8     2     7
 -0.0012045997     7     8     3     1
 0.0000000009     7     8     3     6
 -0.0002708120     7     8     3     7
 0.0000000014     7     8     6     2
 -0.0000000100     7     8     8     1
 -0.1840722021     7     8     8     7
 0.0000000203     8     1     1     3
 -0.1878383188     8     1     1     8
 -0.0005941410     8     1     2     6
 0.0000000017     8     1     2     7
 -0.0000000017     8     1     3     6
 -0.0005941421     8     1     3     7
 -0.0021515661     8     1     6     2
 -0.0000000061     8     1     6     3
 0.0000000061     8     1     7     2
 -0.0021515670     8     1     7     3
 -0.0000000100     8     1     7     8
 0.0012046000     8     2     1     6
 -0.0000000034     8     2     1     7
 0.0000000202     8     2     2     3
 -0.1892658138     8     2     2     8
 -0.0000000029     8     2     4     4
 0.0009934474     8     2     4     5
 0.0009934469     8     2     5     4
 0.0000000029     8     2     5     5
 0.0021515661     8     2     6     1
 0.0000000009     8     2     6     6
 -0.0002708304     8     2     6     7
 -0.0000000061     8     2     7     1
 -0.0002708290     8     2     7     6
 -0.0000000009     8     2     7     7
 -0.0000000203     8     3     1     1
 0.0000000034     8     3     1     6
 0.0012045997     8     3     1     7
 -0.0000000202     8     3     2     2
 -0.1892658257     8     3     3     8
 0.0009934260     8     3     4     4
 0.0000000029     8     3     4     5
 0.0000000029     8     3     5     4
 -0.0009934678     8     3     5     5
 0.0000000061     8     3     6     1
 -0.0002708483     8     3     6     6
 -0.0000000009     8     3     6     7
 0.0021515670     8     3     7     1
 -0.0000000009     8     3     7     6
 0.0002708120     8     3     7     7
 0.0000000006     8     4     2     5
 0.0000000029     8     4     4     2
 -0.0009934260     8     4     4     3
 -0.1877393316     8     4     4     8
 -0.0009934469     8     4     5     2
 -0.0000000029     8     4     5     3
 -0.0000000006     8     5     2     4
 -0.0009934474     8     5     4     2
 -0.0000000029     8     5     4     3
 -0.0000000029     8     5     5     2
 0.0009934678     8     5     5     3
 -0.1877393129     8     5     5     8
 -0.0012046000     8     6     1     2
 -0.0000000034     8     6     1     3
 0.0005941410     8     6     2     1
 -0.0000000014     8     6     2     7
 0.0000000017     8     6     3     1
 -0.0000000009     8     6     6     2
 0.0002708483     8     6     6     3
 -0.1840721935     8     6     6     8
 0.0002708290     8     6     7     2
 0.0000000009     8     6     7     3
 0.0000000034     8     7     1     2
 -0.0012045997     8     7     1     3
 -0.0000000100     8     7     1     8
 -0.0000000017     8     7     2     1
 0.0000000014     8     7     2     6
 0.0005941421     8     7     3     1
 0.0002708304     8     7     6     2
 0.0000000009     8     7     6     3
 0.0000000009     8     7     7     2
 -0.0002708120     8     7     7     3
 -0.1840722021     8     7     7     8
 0.1878383188     8     8     1     1
 0.0000000100     8     8     1     7
 0.1892658138     8     8     2     2
 0.1892658257     8     8     3     3
 0.1877393316     8     8     4     4
 0.1877393129     8     8     5     5
 0.1840721935     8     8     6     6
 0.0000000100     8     8     7     1
 0.1840722021     8     8     7     7
0.0 0 0 0 0
 0.2693361818     1     1     2     2
 0.2693361658     1     1     3     3
 -0.0000000203     1     1     3     8
 0.2140811528     1     1     4     4
 0.2140811829     1     1     5     5
 0.2512868015     1     1     6     6
 0.2512867944     1     1     7     7
 -0.0000000203     1     1     8     3
 0.1878383188     1     1     8     8
 -0.2693361818     1     2     2     1
 -0.0000000142     1     2     2     6
 0.0023976140     1     2     2     7
 0.0023976129     1     2     3     6
 0.0000000142     1     2     3     7
 0.0000000001     1     2     6     3
 0.0005941410     1     2     6     8
 -0.0000000017     1     2     7     8
 -0.0012046000     1     2     8     6
 0.0000000034     1     2     8     7
 0.0023976126     1     3     2     6
 0.0000000142     1     3     2     7
 -0.2693361658     1     3     3     1
 0.0000000142     1     3     3     6
 -0.0023976213     1     3     3     7
 -0.0000000001     1     3     6     2
 0.0000000017     1     3     6     8
 0.0005941421     1     3     7     8
 0.0000000203     1     3     8     1
 -0.0000000034     1     3     8     6
 -0.0012045997     1     3     8     7
 -0.2140811528     1     4     4     1
 -0.0000000021     1     4     4     6
 0.0268345760     1     4     4     7
 0.0268345795     1     4     5     6
 0.0000000021     1     4     5     7
 0.0000000144     1     4     6     5
 0.0268345658     1     5     4     6
 0.0000000021     1     5     4     7
 -0.2140811829     1     5     5     1
 0.0000000021     1     5     5     6
 -0.0268345628     1     5     5     7
 -0.0000000144     1     5     6     4
 0.0000000142     1     6     2     2
 -0.0023976126     1     6     2     3
 0.0021515661     1     6     2     8
 -0.0023976129     1     6     3     2
 -0.0000000142     1     6     3     3
 0.0000000061     1     6     3     8
 0.0000000021     1     6     4     4
 -0.0268345658     1     6     4     5
 -0.0268345795     1     6     5     4
 -0.0000000021     1     6     5     5
 -0.2512868015     1     6     6     1
 0.0012046000     1     6     8     2
 0.0000000034     1     6     8     3
 -0.0023976140     1     7     2     2
 -0.0000000142     1     7     2     3
 -0.0000000061     1     7     2     8
 -0.0000000142     1     7     3     2
 0.0023976213     1     7     3     3
 0.0021515670     1     7     3     8
 -0.0268345760     1     7     4     4
 -0.0000000021     1     7     4     5
 -0.0000000021     1     7     5     4
 0.0268345628     1     7     5     5
 -0.2512867944     1     7     7     1
 -0.0000000034     1     7     8     2
 0.0012045997     1     7     8     3
 0.0000000100     1     7     8     8
 -0.0021515661     1     8     2     6
 0.0000000061     1     8     2     7
 0.0000000203     1     8     3     1
 -0.0000000061     1     8     3     6
 -0.0021515670     1     8     3     7
 -0.0005941410     1     8     6     2
 -0.0000000017     1     8     6     3
 0.0000000017     1     8     7     2
 -0.0005941421     1     8     7     3
 -0.1878383188     1     8     8     1
 -0.0000000100     1     8     8     7
 -0.2693361818     2     1     1     2
 0.0000000001     2     1     3     6
 -0.0000000142     2     1     6     2
 0.0023976129     2     1     6     3
 -0.0012046000     2     1     6     8
 0.0023976140     2     1     7     2
 0.0000000142     2     1     7     3
 0.0000000034     2     1     7     8
 0.0005941410     2     1     8     6