&FCI NORB= 13,NELEC= 14,MS2=0,
 ORBSYM=1,1,1,1,1,1,1,1,1,1,1,1,1
 ISYM=1,
&END
 0.6050926742     1     1     2     2
 0.0141236834     1     1     2     6
 0.0049962917     1     1     2    10
 0.9249992885     1     1     3     3
 0.1325838098     1     1     3     7
 0.0991264140     1     1     3    11
 0.7523248838     1     1     4     4
 0.1308126248     1     1     4    12
 -0.1861542448     1     1     4    13
 0.7523248838     1     1     5     5
 -0.1861542448     1     1     5    12
 -0.1308126248     1     1     5    13
 0.0141236834     1     1     6     2
 0.6549525931     1     1     6     6
 0.1406227685     1     1     6    10
 0.1325838098     1     1     7     3
 0.7065223174     1     1     7     7
 0.1478202060     1     1     7    11
 0.5742512000     1     1     8     8
 0.5742512000     1     1     9     9
 0.0049962917     1     1    10     2
 0.1406227685     1     1    10     6
 0.3740380809     1     1    10    10
 0.0991264140     1     1    11     3
 0.1478202060     1     1    11     7
 0.4564088295     1     1    11    11
 0.1308126248     1     1    12     4
 -0.1861542448     1     1    12     5
 0.5554028794     1     1    12    12
 -0.1861542448     1     1    13     4
 -0.1308126248     1     1    13     5
 0.5554028794     1     1    13    13
 -0.6050926742     1     2     2     1
 -0.0221908609     1     2     2     3
 -0.0279995528     1     2     2     7
 -0.0161270462     1     2     2    11
 -0.0986219852     1     2     3     6
 -0.0588014028     1     2     3    10
 -0.0568752552     1     2     4     8
 -0.1743847602     1     2     4     9
 -0.1743847602     1     2     5     8
 0.0568752552     1     2     5     9
 -0.0141236834     1     2     6     1
 -0.0996428183     1     2     6     3
 0.2258674366     1     2     6     7
 0.0238360915     1     2     6    11
 0.2271746844     1     2     7     6
 0.0513254691     1     2     7    10
 -0.0566000279     1     2     8     4
 -0.1735408880     1     2     8     5
 0.0434958588     1     2     8    12
 0.0580570837     1     2     8    13
 -0.1735408880     1     2     9     4
 0.0566000279     1     2     9     5
 -0.0580570837     1     2     9    12
 0.0434958588     1     2     9    13
 -0.0049962917     1     2    10     1
 -0.0591672969     1     2    10     3
 0.0508461168     1     2    10     7
 0.0666293582     1     2    10    11
 0.0246230550     1     2    11     6
 0.0669179514     1     2    11    10
 0.0439472649     1     2    12     8
 -0.0586596083     1     2    12     9
 0.0586596083     1     2    13     8
 0.0439472649     1     2    13     9
 0.0221908609     1     3     2     2
 0.0010208331     1     3     2     6
 0.0003658941     1     3     2    10
 -0.9249992885     1     3     3     1
 -0.0304007958     1     3     3     7
 -0.0169333033     1     3     3    11
 -0.0203876333     1     3     4     4
 -0.0121262885     1     3     4    12
 0.0172564389     1     3     4    13
 -0.0203876333     1     3     5     5
 0.0172564389     1     3     5    12
 0.0121262885     1     3     5    13
 0.0996428183     1     3     6     2
 -0.0128928484     1     3     6     6
 -0.0038572077     1     3     6    10
 -0.1325838098     1     3     7     1
 -0.0272216475     1     3     7     7
 -0.0098354994     1     3     7    11
 -0.0108909219     1     3     8     8
 -0.0108909219     1     3     9     9
 0.0591672969     1     3    10     2
 -0.0029389258     1     3    10     6
 -0.0027877844     1     3    10    10
 -0.0991264140     1     3    11     1
 -0.0106997277     1     3    11     7
 -0.0054251104     1     3    11    11
 -0.0075181144     1     3    12     4
 0.0106987295     1     3    12     5
 -0.0117901113     1     3    12    12
 0.0106987295     1     3    13     4
 0.0075181144     1     3    13     5
 -0.0117901113     1     3    13    13
 -0.0002752273     1     4     2     8
 -0.0008438722     1     4     2     9
 -0.0046081741     1     4     3    12
 0.0065577094     1     4     3    13
 -0.7523248838     1     4     4     1
 0.0203876333     1     4     4     3
 -0.0189765761     1     4     4     7
 -0.0089331065     1     4     4    11
 0.0016085995     1     4     6     8
 0.0049321139     1     4     6     9
 0.0035160586     1     4     7    12
 -0.0050035631     1     4     7    13
 0.0566000279     1     4     8     2
 0.0043157732     1     4     8     6
 0.0020154886     1     4     8    10
 0.1735408880     1     4     9     2
 0.0132325574     1     4     9     6
 0.0061796732     1     4     9    10
 0.0003739275     1     4    10     8
 0.0011464961     1     4    10     9
 0.0028854261     1     4    11    12
 -0.0041061351     1     4    11    13
 -0.1308126248     1     4    12     1
 0.0075181144     1     4    12     3
 -0.0038977589     1     4    12     7
 -0.0004437437     1     4    12    11
 0.1861542448     1     4    13     1
 -0.0106987295     1     4    13     3
 0.0055467457     1     4    13     7
 0.0006314740     1     4    13    11
 -0.0008438722     1     5     2     8
 0.0002752273     1     5     2     9
 0.0065577094     1     5     3    12
 0.0046081741     1     5     3    13
 -0.7523248838     1     5     5     1
 0.0203876333     1     5     5     3
 -0.0189765761     1     5     5     7
 -0.0089331065     1     5     5    11
 0.0049321139     1     5     6     8
 -0.0016085995     1     5     6     9
 -0.0050035631     1     5     7    12
 -0.0035160586     1     5     7    13
 0.1735408880     1     5     8     2
 0.0132325574     1     5     8     6
 0.0061796732     1     5     8    10
 -0.0566000279     1     5     9     2
 -0.0043157732     1     5     9     6
 -0.0020154886     1     5     9    10
 0.0011464961     1     5    10     8
 -0.0003739275     1     5    10     9
 -0.0041061351     1     5    11    12
 -0.0028854261     1     5    11    13
 0.1861542448     1     5    12     1
 -0.0106987295     1     5    12     3
 0.0055467457     1     5    12     7
 0.0006314740     1     5    12    11
 0.1308126248     1     5    13     1
 -0.0075181144     1     5    13     3
 0.0038977589     1     5    13     7
 0.0004437437     1     5    13    11
 -0.0141236834     1     6     2     1
 -0.0010208331     1     6     2     3
 -0.0013072478     1     6     2     7
 -0.0007869635     1     6     2    11
 0.0986219852     1     6     3     2
 -0.0009182819     1     6     3    10
 -0.0027071737     1     6     4     8
 -0.0083004435     1     6     4     9
 -0.0083004435     1     6     5     8
 0.0027071737     1     6     5     9
 -0.6549525931     1     6     6     1
 0.0128928484     1     6     6     3
 0.0008228706     1     6     6     7
 0.0062933099     1     6     6    11
 -0.2271746844     1     6     7     2
 0.0004324135     1     6     7    10
 -0.0043157732     1     6     8     4
 -0.0132325574     1     6     8     5
 0.0094281909     1     6     8    12
 0.0125844916     1     6     8    13
 -0.0132325574     1     6     9     4
 0.0043157732     1     6     9     5
 -0.0125844916     1     6     9    12
 0.0094281909     1     6     9    13
 -0.1406227685     1     6    10     1
 0.0029389258     1     6    10     3
 -0.0002261171     1     6    10     7
 -0.0017359315     1     6    10    11
 -0.0246230550     1     6    11     2
 -0.0034291409     1     6    11    10
 0.0044331913     1     6    12     8
 -0.0059173026     1     6    12     9
 0.0059173026     1     6    13     8
 0.0044331913     1     6    13     9
 0.0279995528     1     7     2     2
 0.0013072478     1     7     2     6
 0.0004793523     1     7     2    10
 -0.1325838098     1     7     3     1
 0.0304007958     1     7     3     3
 0.0008642283     1     7     3    11
 0.0189765761     1     7     4     4
 0.0074138175     1     7     4    12
 -0.0105503088     1     7     4    13
 0.0189765761     1     7     5     5
 -0.0105503088     1     7     5    12
 -0.0074138175     1     7     5    13
 -0.2258674366     1     7     6     2
 -0.0008228706     1     7     6     6
 0.0006585306     1     7     6    10
 -0.7065223174     1     7     7     1
 0.0272216475     1     7     7     3
 0.0084929387     1     7     7    11
 0.0074928031     1     7     8     8
 0.0074928031     1     7     9     9
 -0.0508461168     1     7    10     2
 0.0002261171     1     7    10     6
 -0.0020048220     1     7    10    10
 -0.1478202060     1     7    11     1
 0.0106997277     1     7    11     3
 0.0020466118     1     7    11    11
 0.0038977589     1     7    12     4
 -0.0055467457     1     7    12     5
 0.0069940731     1     7    12    12
 -0.0055467457     1     7    13     4
 -0.0038977589     1     7    13     5
 0.0069940731     1     7    13    13
 0.0002752273     1     8     2     4
 0.0008438722     1     8     2     5
 -0.0004514061     1     8     2    12
 -0.0006025246     1     8     2    13
 0.0568752552     1     8     4     2
 0.0027071737     1     8     4     6
 0.0016415611     1     8     4    10
 0.1743847602     1     8     5     2
 0.0083004435     1     8     5     6
 0.0050331771     1     8     5    10
 -0.0016085995     1     8     6     4
 -0.0049321139     1     8     6     5
 0.0049949996     1     8     6    12
 0.0066671890     1     8     6    13
 -0.5742512000     1     8     8     1
 0.0108909219     1     8     8     3
 -0.0074928031     1     8     8     7
 -0.0007787070     1     8     8    11
 -0.0003739275     1     8    10     4
 -0.0011464961     1     8    10     5
 0.0013346174     1     8    10    12
 0.0017814109     1     8    10    13
 -0.0439472649     1     8    12     2
 -0.0044331913     1     8    12     6
 -0.0028902154     1     8    12    10
 -0.0586596083     1     8    13     2
 -0.0059173026     1     8    13     6
 -0.0038577804     1     8    13    10
 0.0008438722     1     9     2     4
 -0.0002752273     1     9     2     5
 0.0006025246     1     9     2    12
 -0.0004514061     1     9     2    13
 0.1743847602     1     9     4     2
 0.0083004435     1     9     4     6
 0.0050331771     1     9     4    10
 -0.0568752552     1     9     5     2
 -0.0027071737     1     9     5     6
 -0.0016415611     1     9     5    10
 -0.0049321139     1     9     6     4
 0.0016085995     1     9     6     5
 -0.0066671890     1     9     6    12
 0.0049949996     1     9     6    13
 -0.5742512000     1     9     9     1
 0.0108909219     1     9     9     3
 -0.0074928031     1     9     9     7
 -0.0007787070     1     9     9    11
 -0.0011464961     1     9    10     4
 0.0003739275     1     9    10     5
 -0.0017814109     1     9    10    12
 0.0013346174     1     9    10    13
 0.0586596083     1     9    12     2
 0.0059173026     1     9    12     6
 0.0038577804     1     9    12    10
 -0.0439472649     1     9    13     2
 -0.0044331913     1     9    13     6
 -0.0028902154     1     9    13    10
 -0.0049962917     1    10     2     1
 -0.0003658941     1    10     2     3
 -0.0004793523     1    10     2     7
 -0.0002885932     1    10     2    11
 0.0588014028     1    10     3     2
 0.0009182819     1    10     3     6
 -0.0016415611     1    10     4     8
 -0.0050331771     1    10     4     9
 -0.0050331771     1    10     5     8
 0.0016415611     1    10     5     9
 -0.1406227685     1    10     6     1
 0.0038572077     1    10     6     3
 -0.0006585306     1    10     6     7
 0.0016932094     1    10     6    11
 -0.0513254691     1    10     7     2
 -0.0004324135     1    10     7     6
 -0.0020154886     1    10     8     4
 -0.0061796732     1    10     8     5
 0.0042248328     1    10     8    12
 0.0056391913     1    10     8    13
 -0.0061796732     1    10     9     4
 0.0020154886     1    10     9     5
 -0.0056391913     1    10     9    12
 0.0042248328     1    10     9    13
 -0.3740380809     1    10    10     1
 0.0027877844     1    10    10     3
 0.0020048220     1    10    10     7
 0.0006046746     1    10    10    11
 -0.0669179514     1    10    11     2
 0.0034291409     1    10    11     6
 0.0028902154     1    10    12     8
 -0.0038577804     1    10    12     9
 0.0038577804     1    10    13     8
 0.0028902154     1    10    13     9
 0.0161270462     1    11     2     2
 0.0007869635     1    11     2     6
 0.0002885932     1    11     2    10
 -0.0991264140     1    11     3     1
 0.0169333033     1    11     3     3
 -0.0008642283     1    11     3     7
 0.0089331065     1    11     4     4
 0.0033291698     1    11     4    12
 -0.0047376091     1    11     4    13
 0.0089331065     1    11     5     5
 -0.0047376091     1    11     5    12
 -0.0033291698     1    11     5    13
 -0.0238360915     1    11     6     2
 -0.0062933099     1    11     6     6
 -0.0016932094     1    11     6    10
 -0.1478202060     1    11     7     1
 0.0098354994     1    11     7     3
 -0.0084929387     1    11     7     7
 0.0007787070     1    11     8     8
 0.0007787070     1    11     9     9
 -0.0666293582     1    11    10     2
 0.0017359315     1    11    10     6
 -0.0006046746     1    11    10    10
 -0.4564088295     1    11    11     1
 0.0054251104     1    11    11     3
 -0.0020466118     1    11    11     7
 0.0004437437     1    11    12     4
 -0.0006314740     1    11    12     5
 0.0010047283     1    11    12    12
 -0.0006314740     1    11    13     4
 -0.0004437437     1    11    13     5
 0.0010047283     1    11    13    13
 0.0004514061     1    12     2     8
 -0.0006025246     1    12     2     9
 0.0046081741     1    12     3     4
 -0.0065577094     1    12     3     5
 -0.1308126248     1    12     4     1
 0.0121262885     1    12     4     3
 -0.0074138175     1    12     4     7
 -0.0033291698     1    12     4    11
 0.1861542448     1    12     5     1
 -0.0172564389     1    12     5     3
 0.0105503088     1    12     5     7
 0.0047376091     1    12     5    11
 -0.0049949996     1    12     6     8
 0.0066671890     1    12     6     9
 -0.0035160586     1    12     7     4
 0.0050035631     1    12     7     5
 -0.0434958588     1    12     8     2
 -0.0094281909     1    12     8     6
 -0.0042248328     1    12     8    10
 0.0580570837     1    12     9     2
 0.0125844916     1    12     9     6
 0.0056391913     1    12     9    10
 -0.0013346174     1    12    10     8
 0.0017814109     1    12    10     9
 -0.0028854261     1    12    11     4
 0.0041061351     1    12    11     5
 -0.5554028794     1    12    12     1
 0.0117901113     1    12    12     3
 -0.0069940731     1    12    12     7
 -0.0010047283     1    12    12    11
 0.0006025246     1    13     2     8
 0.0004514061     1    13     2     9
 -0.0065577094     1    13     3     4
 -0.0046081741     1    13     3     5
 0.1861542448     1    13     4     1
 -0.0172564389     1    13     4     3
 0.0105503088     1    13     4     7
 0.0047376091     1    13     4    11
 0.1308126248     1    13     5     1
 -0.0121262885     1    13     5     3
 0.0074138175     1    13     5     7
 0.0033291698     1    13     5    11
 -0.0066671890     1    13     6     8
 -0.0049949996     1    13     6     9
 0.0050035631     1    13     7     4
 0.0035160586     1    13     7     5
 -0.0580570837     1    13     8     2
 -0.0125844916     1    13     8     6
 -0.0056391913     1    13     8    10
 -0.0434958588     1    13     9     2
 -0.0094281909     1    13     9     6
 -0.0042248328     1    13     9    10
 -0.0017814109     1    13    10     8
 -0.0013346174     1    13    10     9
 0.0041061351     1    13    11     4
 0.0028854261     1    13    11     5
 -0.5554028794     1    13    13     1
 0.0117901113     1    13    13     3
 -0.0069940731     1    13    13     7
 -0.0010047283     1    13    13    11
 -0.6050926742     2     1     1     2
 -0.0141236834     2     1     1     6
 -0.0049962917     2     1     1    10
 -0.0221908609     2     1     3     2
 -0.0996428183     2     1     3     6
 -0.0591672969     2     1     3    10
 -0.0566000279     2     1     4     8
 -0.1735408880     2     1     4     9
 -0.1735408880     2     1     5     8
 0.0566000279     2     1     5     9
 -0.0986219852     2     1     6     3
 0.2271746844     2     1     6     7
 0.0246230550     2     1     6    11
 -0.0279995528     2     1     7     2
 0.2258674366     2     1     7     6
 0.0508461168     2     1     7    10
 -0.0568752552     2     1     8     4
 -0.1743847602     2     1     8     5
 0.0439472649     2     1     8    12
 0.0586596083     2     1     8    13
 -0.1743847602     2     1     9     4
 0.0568752552     2     1     9     5
 -0.0586596083     2     1     9    12
 0.0439472649     2     1     9    13
 -0.0588014028     2     1    10     3
 0.0513254691     2     1    10     7
 0.0669179514     2     1    10    11
 -0.0161270462     2     1    11     2
 0.0238360915     2     1    11     6
 0.0666293582     2     1    11    10
 0.0434958588     2     1    12     8
 -0.0580570837     2     1    12     9
 0.0580570837     2     1    13     8
 0.0434958588     2     1    13     9
 0.6050926742     2     2     1     1
 0.0221908609     2     2     1     3
 0.0279995528     2     2     1     7
 0.0161270462     2     2     1    11
 0.0221908609     2     2     3     1
 0.9254558139     2     2     3     3
 0.1340784271     2     2     3     7
 0.1000082241     2     2     3    11
 0.7537275449     2     2     4     4
 0.1315536627     2     2     4    12
 -0.1872087865     2     2     4    13
 0.7537275449     2     2     5     5
 -0.1872087865     2     2     5    12
 -0.1315536627     2     2     5    13
 0.6545781777     2     2     6     6
 0.1404588983     2     2     6    10
 0.0279995528     2     2     7     1
 0.1340784271     2     2     7     3
 0.7091923381     2     2     7     7
 0.1492588757     2     2     7    11
 0.5738471537     2     2     8     8
 0.5738471537     2     2     9     9
 0.1404588983     2     2    10     6
 0.3740207021     2     2    10    10
 0.0161270462     2     2    11     1
 0.1000082241     2     2    11     3
 0.1492588757     2     2    11     7
 0.4572436240     2     2    11    11
 0.1315536627     2     2    12     4
 -0.1872087865     2     2    12     5
 0.5565088558     2     2    12    12
 -0.1872087865     2     2    13     4
 -0.1315536627     2     2    13     5
 0.5565088558     2     2    13    13
 -0.0221908609     2     3     1     2
 -0.0010208331     2     3     1     6
 -0.0003658941     2     3     1    10
 -0.9254558139     2     3     3     2
 -0.0202835839     2     3     3     6
 -0.0069993871     2     3     3    10
 0.0086445256     2     3     4     8
 0.0265049103     2     3     4     9
 0.0265049103     2     3     5     8
 -0.0086445256     2     3     5     9
 0.0986219852     2     3     6     1
 -0.0241338662     2     3     6     7
 -0.0056456841     2     3     6    11
 -0.1340784271     2     3     7     2
 -0.0315914135     2     3     7     6
 -0.0097379594     2     3     7    10
 0.0063113226     2     3     8     4
 0.0193510955     2     3     8     5
 -0.0078805254     2     3     8    12
 -0.0105187100     2     3     8    13
 0.0193510955     2     3     9     4
 -0.0063113226     2     3     9     5
 0.0105187100     2     3     9    12
 -0.0078805254     2     3     9    13
 0.0588014028     2     3    10     1
 -0.0059635496     2     3    10     7
 -0.0062773445     2     3    10    11
 -0.1000082241     2     3    11     2
 -0.0105164581     2     3    11     6
 -0.0086117933     2     3    11    10
 -0.0082640728     2     3    12     8
 0.0110306586     2     3    12     9
 -0.0110306586     2     3    13     8
 -0.0082640728     2     3    13     9
 0.0002752273     2     4     1     8
 0.0008438722     2     4     1     9
 0.0023332030     2     4     3     8
 0.0071538148     2     4     3     9
 -0.7537275449     2     4     4     2
 -0.0218557194     2     4     4     6
 -0.0102560044     2     4     4    10
 0.0027081910     2     4     6    12
 -0.0038539188     2     4     6    13
 0.0006609358     2     4     7     8
 0.0020264898     2     4     7     9
 0.0568752552     2     4     8     1
 -0.0063113226     2     4     8     3
 0.0000581735     2     4     8     7
 -0.0011995294     2     4     8    11
 0.1743847602     2     4     9     1
 -0.0193510955     2     4     9     3
 0.0001783653     2     4     9     7
 -0.0036778671     2     4     9    11
 0.0008503363     2     4    10    12
 -0.0012100797     2     4    10    13
 -0.0003880211     2     4    11     8
 -0.0011897082     2     4    11     9
 -0.1315536627     2     4    12     2
 -0.0074511030     2     4    12     6
 -0.0041945711     2     4    12    10
 0.1872087865     2     4    13     2
 0.0106033684     2     4    13     6
 0.0059691274     2     4    13    10
 0.0008438722     2     5     1     8
 -0.0002752273     2     5     1     9
 0.0071538148     2     5     3     8
 -0.0023332030     2     5     3     9
 -0.7537275449     2     5     5     2
 -0.0218557194     2     5     5     6
 -0.0102560044     2     5     5    10
 -0.0038539188     2     5     6    12
 -0.0027081910     2     5     6    13
 0.0020264898     2     5     7     8
 -0.0006609358     2     5     7     9
 0.1743847602     2     5     8     1
 -0.0193510955     2     5     8     3
 0.0001783653     2     5     8     7
 -0.0036778671     2     5     8    11
 -0.0568752552     2     5     9     1
 0.0063113226     2     5     9     3
 -0.0000581735     2     5     9     7
 0.0011995294     2     5     9    11
 -0.0012100797     2     5    10    12
 -0.0008503363     2     5    10    13
 -0.0011897082     2     5    11     8
 0.0003880211     2     5    11     9
 0.1872087865     2     5    12     2
 0.0106033684     2     5    12     6
 0.0059691274     2     5    12    10
 0.1315536627     2     5    13     2
 0.0074511030     2     5    13     6
 0.0041945711     2     5    13    10
 0.0141236834     2     6     1     1
 0.0010208331     2     6     1     3
 0.0013072478     2     6     1     7
 0.0007869635     2     6     1    11
 0.0996428183     2     6     3     1
 0.0202835839     2     6     3     3
 0.0074575473     2     6     3     7
 0.0048707740     2     6     3    11
 0.0218557194     2     6     4     4
 0.0101592940     2     6     4    12
 -0.0144572872     2     6     4    13
 0.0218557194     2     6     5     5
 -0.0144572872     2     6     5    12
 -0.0101592940     2     6     5    13
 -0.6545781777     2     6     6     2
 0.0006050833     2     6     6    10
 -0.2258674366     2     6     7     1
 0.0315914135     2     6     7     3
 0.0233644991     2     6     7     7
 0.0178636654     2     6     7    11
 0.0145262467     2     6     8     8
 0.0145262467     2     6     9     9
 -0.1404588983     2     6    10     2
 -0.0010040586     2     6    10    10
 -0.0238360915     2     6    11     1
 0.0105164581     2     6    11     3
 0.0070502978     2     6    11     7
 0.0054018389     2     6    11    11
 0.0074511030     2     6    12     4
 -0.0106033684     2     6    12     5
 0.0124719022     2     6    12    12
 -0.0106033684     2     6    13     4
 -0.0074511030     2     6    13     5
 0.0124719022     2     6    13    13
 -0.0279995528     2     7     1     2
 -0.0013072478     2     7     1     6
 -0.0004793523     2     7     1    10
 -0.1340784271     2     7     3     2
 -0.0074575473     2     7     3     6
 -0.0037744098     2     7     3    10
 0.0006027623     2     7     4     8
 0.0018481245     2     7     4     9
 0.0018481245     2     7     5     8
 -0.0006027623     2     7     5     9
 -0.2271746844     2     7     6     1
 0.0241338662     2     7     6     3
 0.0108133676     2     7     6    11
 -0.7091923381     2     7     7     2
 -0.0233644991     2     7     7     6
 -0.0069050480     2     7     7    10
 -0.0000581735     2     7     8     4
 -0.0001783653     2     7     8     5
 0.0040638143     2     7     8    12
 0.0054242683     2     7     8    13
 -0.0001783653     2     7     9     4
 0.0000581735     2     7     9     5
 -0.0054242683     2     7     9    12
 0.0040638143     2     7     9    13
 -0.0513254691     2     7    10     1
 0.0059635496     2     7    10     3
 -0.0034395841     2     7    10    11
 -0.1492588757     2     7    11     2
 -0.0070502978     2     7    11     6
 -0.0090555849     2     7    11    10
 0.0000464806     2     7    12     8
 -0.0000620410     2     7    12     9
 0.0000620410     2     7    13     8
 0.0000464806     2     7    13     9
 -0.0002752273     2     8     1     4
 -0.0008438722     2     8     1     5
 0.0004514061     2     8     1    12
 0.0006025246     2     8     1    13
 -0.0023332030     2     8     3     4
 -0.0071538148     2     8     3     5
 0.0003835474     2     8     3    12
 0.0005119486     2     8     3    13
 0.0566000279     2     8     4     1
 -0.0086445256     2     8     4     3
 -0.0006027623     2     8     4     7
 -0.0008115083     2     8     4    11
 0.1735408880     2     8     5     1
 -0.0265049103     2     8     5     3
 -0.0018481245     2     8     5     7
 -0.0024881589     2     8     5    11
 -0.0006609358     2     8     7     4
 -0.0020264898     2     8     7     5
 0.0040173337     2     8     7    12
 0.0053622273     2     8     7    13
 -0.5738471537     2     8     8     2
 -0.0145262467     2     8     8     6
 -0.0062836244     2     8     8    10
 0.0003880211     2     8    11     4
 0.0011897082     2     8    11     5
 0.0015778235     2     8    11    12
 0.0021060357     2     8    11    13
 -0.0434958588     2     8    12     1
 0.0082640728     2     8    12     3
 -0.0000464806     2     8    12     7
 0.0014283334     2     8    12    11
 -0.0580570837     2     8    13     1
 0.0110306586     2     8    13     3
 -0.0000620410     2     8    13     7
 0.0019065004     2     8    13    11
 -0.0008438722     2     9     1     4
 0.0002752273     2     9     1     5
 -0.0006025246     2     9     1    12
 0.0004514061     2     9     1    13
 -0.0071538148     2     9     3     4
 0.0023332030     2     9     3     5
 -0.0005119486     2     9     3    12
 0.0003835474     2     9     3    13
 0.1735408880     2     9     4     1
 -0.0265049103     2     9     4     3
 -0.0018481245     2     9     4     7
 -0.0024881589     2     9     4    11
 -0.0566000279     2     9     5     1
 0.0086445256     2     9     5     3
 0.0006027623     2     9     5     7
 0.0008115083     2     9     5    11
 -0.0020264898     2     9     7     4
 0.0006609358     2     9     7     5
 -0.0053622273     2     9     7    12
 0.0040173337     2     9     7    13
 -0.5738471537     2     9     9     2
 -0.0145262467     2     9     9     6
 -0.0062836244     2     9     9    10
 0.0011897082     2     9    11     4
 -0.0003880211     2     9    11     5
 -0.0021060357     2     9    11    12
 0.0015778235     2     9    11    13
 0.0580570837     2     9    12     1
 -0.0110306586     2     9    12     3
 0.0000620410     2     9    12     7
 -0.0019065004     2     9    12    11
 -0.0434958588     2     9    13     1
 0.0082640728     2     9    13     3
 -0.0000464806     2     9    13     7
 0.0014283334     2     9    13    11
 0.0049962917     2    10     1     1
 0.0003658941     2    10     1     3
 0.0004793523     2    10     1     7
 0.0002885932     2    10     1    11
 0.0591672969     2    10     3     1
 0.0069993871     2    10     3     3
 0.0037744098     2    10     3     7
 0.0023344488     2    10     3    11
 0.0102560044     2    10     4     4
 0.0050449074     2    10     4    12
 -0.0071792071     2    10     4    13
 0.0102560044     2    10     5     5
 -0.0071792071     2    10     5    12
 -0.0050449074     2    10     5    13
 -0.1404588983     2    10     6     2
 -0.0006050833     2    10     6     6
 -0.0508461168     2    10     7     1
 0.0097379594     2    10     7     3
 0.0069050480     2    10     7     7
 0.0056160008     2    10     7    11
 0.0062836244     2    10     8     8
 0.0062836244     2    10     9     9
 -0.3740207021     2    10    10     2
 0.0010040586     2    10    10     6
 -0.0666293582     2    10    11     1
 0.0086117933     2    10    11     3
 0.0090555849     2    10    11     7
 0.0054811365     2    10    11    11
 0.0041945711     2    10    12     4
 -0.0059691274     2    10    12     5
 0.0068703034     2    10    12    12
 -0.0059691274     2    10    13     4
 -0.0041945711     2    10    13     5
 0.0068703034     2    10    13    13
 -0.0161270462     2    11     1     2
 -0.0007869635     2    11     1     6
 -0.0002885932     2    11     1    10
 -0.1000082241     2    11     3     2
 -0.0048707740     2    11     3     6
 -0.0023344488     2    11     3    10
 0.0008115083     2    11     4     8
 0.0024881589     2    11     4     9
 0.0024881589     2    11     5     8
 -0.0008115083     2    11     5     9
 -0.0246230550     2    11     6     1
 0.0056456841     2    11     6     3
 -0.0108133676     2    11     6     7
 -0.1492588757     2    11     7     2
 -0.0178636654     2    11     7     6
 -0.0056160008     2    11     7    10
 0.0011995294     2    11     8     4
 0.0036778671     2    11     8     5
 0.0001494901     2    11     8    12
 0.0001995353     2    11     8    13
 0.0036778671     2    11     9     4
 -0.0011995294     2    11     9     5
 -0.0001995353     2    11     9    12
 0.0001494901     2    11     9    13
 -0.0669179514     2    11    10     1
 0.0062773445     2    11    10     3
 0.0034395841     2    11    10     7
 -0.4572436240     2    11    11     2
 -0.0054018389     2    11    11     6
 -0.0054811365     2    11    11    10
 -0.0014283334     2    11    12     8
 0.0019065004     2    11    12     9
 -0.0019065004     2    11    13     8
 -0.0014283334     2    11    13     9
 -0.0004514061     2    12     1     8
 0.0006025246     2    12     1     9
 -0.0003835474     2    12     3     8
 0.0005119486     2    12     3     9
 -0.1315536627     2    12     4     2