&FCI NORB= 13,NELEC= 14,MS2=0,
 ORBSYM=1,1,1,1,1,1,1,1,1,1,1,1,1
 ISYM=1,
&END
 0.1934287527     1     1     2     2
 -0.0001602634     1     1     2     4
 0.0024696775     1     1     2    10
 0.5529930696     1     1     3     3
 -0.0000000002     1     1     3     4
 0.0020316584     1     1     3     5
 0.0922774268     1     1     3    11
 -0.0001602634     1     1     4     2
 -0.0000000002     1     1     4     3
 0.5588224464     1     1     4     4
 0.0252044810     1     1     4    10
 -0.0000000001     1     1     4    11
 0.0020316584     1     1     5     3
 0.5173362656     1     1     5     5
 -0.0000000002     1     1     5    10
 0.1548053210     1     1     5    11
 0.5224529008     1     1     6     6
 -0.0000000002     1     1     6     8
 -0.0000000001     1     1     6     9
 0.0003077521     1     1     6    12
 -0.2038433443     1     1     6    13
 0.5224529008     1     1     7     7
 -0.0000000001     1     1     7     8
 0.0000000002     1     1     7     9
 -0.2038433443     1     1     7    12
 -0.0003077521     1     1     7    13
 -0.0000000002     1     1     8     6
 -0.0000000001     1     1     8     7
 0.5318495391     1     1     8     8
 0.0000000001     1     1     8    13
 -0.0000000001     1     1     9     6
 0.0000000002     1     1     9     7
 0.5318495391     1     1     9     9
 -0.0000000002     1     1     9    12
 0.0000000001     1     1     9    13
 0.0024696775     1     1    10     2
 0.0252044810     1     1    10     4
 -0.0000000002     1     1    10     5
 0.5533327552     1     1    10    10
 -0.0000000001     1     1    10    11
 0.0922774268     1     1    11     3
 -0.0000000001     1     1    11     4
 0.1548053210     1     1    11     5
 -0.0000000001     1     1    11    10
 0.5419978221     1     1    11    11
 0.0003077521     1     1    12     6
 -0.2038433443     1     1    12     7
 -0.0000000002     1     1    12     9
 0.5160713904     1     1    12    12
 -0.2038433443     1     1    13     6
 -0.0003077521     1     1    13     7
 0.0000000001     1     1    13     8
 0.0000000001     1     1    13     9
 0.5160713904     1     1    13    13
 -0.1934287527     1     2     2     1
 -0.0000559658     1     2     2     3
 -0.0023292047     1     2     2     5
 -0.0024039373     1     2     2    11
 0.3622127728     1     2     3     4
 0.0259172427     1     2     3    10
 0.0001602634     1     2     4     1
 0.3622129232     1     2     4     3
 -0.0560923939     1     2     4     5
 0.0898412247     1     2     4    11
 -0.0560969997     1     2     5     4
 0.3277880579     1     2     5    10
 -0.0000000001     1     2     6     6
 -0.0000000002     1     2     6     7
 0.3036232415     1     2     6     8
 0.1477715445     1     2     6     9
 0.0000000001     1     2     6    12
 -0.0000000002     1     2     7     6
 0.0000000001     1     2     7     7
 0.1477715445     1     2     7     8
 -0.3036232415     1     2     7     9
 0.0000000001     1     2     7    13
 0.3035964042     1     2     8     6
 0.1477584830     1     2     8     7
 0.0000000002     1     2     8     8
 -0.0913800402     1     2     8    12
 -0.1884793769     1     2     8    13
 0.1477584830     1     2     9     6
 -0.3035964042     1     2     9     7
 -0.0000000002     1     2     9     9
 0.1884793769     1     2     9    12
 -0.0913800402     1     2     9    13
 -0.0024696775     1     2    10     1
 0.0259149444     1     2    10     3
 0.3277285257     1     2    10     5
 0.2242872691     1     2    10    11
 0.0898365038     1     2    11     4
 0.2243493296     1     2    11    10
 0.0000000001     1     2    12     6
 -0.0913947488     1     2    12     8
 0.1885097147     1     2    12     9
 0.0000000001     1     2    13     7
 -0.1885097147     1     2    13     8
 -0.0913947488     1     2    13     9
 0.0000559658     1     3     2     2
 -0.0000001504     1     3     2     4
 0.0000022983     1     3     2    10
 -0.5529930696     1     3     3     1
 -0.0014712226     1     3     3     5
 -0.0020348230     1     3     3    11
 0.0000000002     1     3     4     1
 -0.3622129232     1     3     4     2
 -0.0001828452     1     3     4     4
 0.0023207463     1     3     4    10
 -0.0020316584     1     3     5     1
 -0.0173078191     1     3     5     5
 -0.0193988519     1     3     5    11
 -0.0182539235     1     3     6     6
 -0.0000344914     1     3     6    12
 0.0228457435     1     3     6    13
 -0.0182539235     1     3     7     7
 0.0228457435     1     3     7    12
 0.0000344914     1     3     7    13
 -0.0187466812     1     3     8     8
 -0.0187466812     1     3     9     9
 -0.0259149444     1     3    10     2
 0.0013895243     1     3    10     4
 -0.0196720333     1     3    10    10
 -0.0922774268     1     3    11     1
 -0.0130613836     1     3    11     5
 -0.0151807332     1     3    11    11
 -0.0000231645     1     3    12     6
 0.0153432383     1     3    12     7
 -0.0197870552     1     3    12    12
 0.0153432383     1     3    13     6
 0.0000231645     1     3    13     7
 -0.0197870552     1     3    13    13
 0.0001602634     1     4     2     1
 0.0000001504     1     4     2     3
 0.0000046058     1     4     2     5
 0.0000047209     1     4     2    11
 0.0000000002     1     4     3     1
 -0.3622127728     1     4     3     2
 0.0009312220     1     4     3    10
 -0.5588224464     1     4     4     1
 0.0001828452     1     4     4     3
 0.0001175050     1     4     4     5
 0.0002057680     1     4     4    11
 0.0560969997     1     4     5     2
 -0.0185873123     1     4     5    10
 -0.0167138726     1     4     6     8
 -0.0081345379     1     4     6     9
 -0.0081345379     1     4     7     8
 0.0167138726     1     4     7     9
 -0.0169437838     1     4     8     6
 -0.0082464342     1     4     8     7
 0.0103242255     1     4     8    12
 0.0212946239     1     4     8    13
 -0.0082464342     1     4     9     6
 0.0169437838     1     4     9     7
 -0.0212946239     1     4     9    12
 0.0103242255     1     4     9    13
 -0.0252044810     1     4    10     1
 -0.0013895243     1     4    10     3
 -0.0185511786     1     4    10     5
 -0.0214890232     1     4    10    11
 0.0000000001     1     4    11     1
 -0.0898365038     1     4    11     2
 -0.0151116448     1     4    11    10
 0.0070790582     1     4    12     8
 -0.0146011808     1     4    12     9
 0.0146011808     1     4    13     8
 0.0070790582     1     4    13     9
 0.0023292047     1     5     2     2
 -0.0000046058     1     5     2     4
 0.0000595322     1     5     2    10
 -0.0020316584     1     5     3     1
 0.0014712226     1     5     3     3
 -0.0063374683     1     5     3    11
 0.0560923939     1     5     4     2
 -0.0001175050     1     5     4     4
 -0.0000361337     1     5     4    10
 -0.5173362656     1     5     5     1
 0.0173078191     1     5     5     3
 0.0039394888     1     5     5    11
 0.0022982503     1     5     6     6
 0.0000018259     1     5     6    12
 -0.0012094157     1     5     6    13
 0.0022982503     1     5     7     7
 -0.0012094157     1     5     7    12
 -0.0000018259     1     5     7    13
 0.0023290870     1     5     8     8
 0.0023290870     1     5     9     9
 0.0000000002     1     5    10     1
 -0.3277285257     1     5    10     2
 0.0185511786     1     5    10     4
 0.0051210073     1     5    10    10
 -0.1548053210     1     5    11     1
 0.0130613836     1     5    11     3
 0.0119516553     1     5    11    11
 0.0000021416     1     5    12     6
 -0.0014185220     1     5    12     7
 0.0030278403     1     5    12    12
 -0.0014185220     1     5    13     6
 -0.0000021416     1     5    13     7
 0.0030278403     1     5    13    13
 0.0000268373     1     6     2     8
 0.0000130615     1     6     2     9
 -0.0000113269     1     6     3    12
 0.0075025052     1     6     3    13
 0.0002299112     1     6     4     8
 0.0001118963     1     6     4     9
 -0.0000003157     1     6     5    12
 0.0002091063     1     6     5    13
 -0.5224529008     1     6     6     1
 0.0000000001     1     6     6     2
 0.0182539235     1     6     6     3
 -0.0022982503     1     6     6     5
 0.0048378753     1     6     6    11
 0.0000000002     1     6     7     2
 0.0000000002     1     6     8     1
 -0.3035964042     1     6     8     2
 0.0169437838     1     6     8     4
 0.0027460080     1     6     8    10
 0.0000000001     1     6     9     1
 -0.1477584830     1     6     9     2
 0.0082464342     1     6     9     4
 0.0013364650     1     6     9    10
 -0.0000216041     1     6    10     8
 -0.0000105146     1     6    10     9
 0.0000015655     1     6    11    12
 -0.0010369434     1     6    11    13
 -0.0003077521     1     6    12     1
 -0.0000000001     1     6    12     2
 0.0000231645     1     6    12     3
 -0.0000021416     1     6    12     5
 0.0000139088     1     6    12    11
 0.2038433443     1     6    13     1
 -0.0153432383     1     6    13     3
 0.0014185220     1     6    13     5
 -0.0092126873     1     6    13    11
 0.0000130615     1     7     2     8
 -0.0000268373     1     7     2     9
 0.0075025052     1     7     3    12
 0.0000113269     1     7     3    13
 0.0001118963     1     7     4     8
 -0.0002299112     1     7     4     9
 0.0002091063     1     7     5    12
 0.0000003157     1     7     5    13
 0.0000000002     1     7     6     2
 -0.5224529008     1     7     7     1
 -0.0000000001     1     7     7     2
 0.0182539235     1     7     7     3
 -0.0022982503     1     7     7     5
 0.0048378753     1     7     7    11
 0.0000000001     1     7     8     1
 -0.1477584830     1     7     8     2
 0.0082464342     1     7     8     4
 0.0013364650     1     7     8    10
 -0.0000000002     1     7     9     1
 0.3035964042     1     7     9     2
 -0.0169437838     1     7     9     4
 -0.0027460080     1     7     9    10
 -0.0000105146     1     7    10     8
 0.0000216041     1     7    10     9
 -0.0010369434     1     7    11    12
 -0.0000015655     1     7    11    13
 0.2038433443     1     7    12     1
 -0.0153432383     1     7    12     3
 0.0014185220     1     7    12     5
 -0.0092126873     1     7    12    11
 0.0003077521     1     7    13     1
 -0.0000000001     1     7    13     2
 -0.0000231645     1     7    13     3
 0.0000021416     1     7    13     5
 -0.0000139088     1     7    13    11
 -0.0000268373     1     8     2     6
 -0.0000130615     1     8     2     7
 0.0000147086     1     8     2    12
 0.0000303378     1     8     2    13
 -0.0002299112     1     8     4     6
 -0.0001118963     1     8     4     7
 0.0032451673     1     8     4    12
 0.0066934431     1     8     4    13
 0.0000000002     1     8     6     1
 -0.3036232415     1     8     6     2
 0.0167138726     1     8     6     4
 0.0027676121     1     8     6    10
 0.0000000001     1     8     7     1
 -0.1477715445     1     8     7     2
 0.0081345379     1     8     7     4
 0.0013469796     1     8     7    10
 -0.5318495391     1     8     8     1
 -0.0000000002     1     8     8     2
 0.0187466812     1     8     8     3
 -0.0023290870     1     8     8     5
 0.0058249064     1     8     8    11
 0.0000216041     1     8    10     6
 0.0000105146     1     8    10     7
 0.0002954250     1     8    10    12
 0.0006093401     1     8    10    13
 0.0913947488     1     8    12     2
 -0.0070790582     1     8    12     4
 -0.0008833445     1     8    12    10
 -0.0000000001     1     8    13     1
 0.1885097147     1     8    13     2
 -0.0146011808     1     8    13     4
 -0.0018219758     1     8    13    10
 -0.0000130615     1     9     2     6
 0.0000268373     1     9     2     7
 -0.0000303378     1     9     2    12
 0.0000147086     1     9     2    13
 -0.0001118963     1     9     4     6
 0.0002299112     1     9     4     7
 -0.0066934431     1     9     4    12
 0.0032451673     1     9     4    13
 0.0000000001     1     9     6     1
 -0.1477715445     1     9     6     2
 0.0081345379     1     9     6     4
 0.0013469796     1     9     6    10
 -0.0000000002     1     9     7     1
 0.3036232415     1     9     7     2
 -0.0167138726     1     9     7     4
 -0.0027676121     1     9     7    10
 -0.5318495391     1     9     9     1
 0.0000000002     1     9     9     2
 0.0187466812     1     9     9     3
 -0.0023290870     1     9     9     5
 0.0058249064     1     9     9    11
 0.0000105146     1     9    10     6
 -0.0000216041     1     9    10     7
 -0.0006093401     1     9    10    12
 0.0002954250     1     9    10    13
 0.0000000002     1     9    12     1
 -0.1885097147     1     9    12     2
 0.0146011808     1     9    12     4
 0.0018219758     1     9    12    10
 -0.0000000001     1     9    13     1
 0.0913947488     1     9    13     2
 -0.0070790582     1     9    13     4
 -0.0008833445     1     9    13    10
 -0.0024696775     1    10     2     1
 -0.0000022983     1    10     2     3
 -0.0000595322     1    10     2     5
 -0.0000620605     1    10     2    11
 -0.0259172427     1    10     3     2
 -0.0009312220     1    10     3     4
 -0.0252044810     1    10     4     1
 -0.0023207463     1    10     4     3
 0.0000361337     1    10     4     5
 -0.0063773784     1    10     4    11
 0.0000000002     1    10     5     1
 -0.3277880579     1    10     5     2
 0.0185873123     1    10     5     4
 -0.0027676121     1    10     6     8
 -0.0013469796     1    10     6     9
 -0.0013469796     1    10     7     8
 0.0027676121     1    10     7     9
 -0.0027460080     1    10     8     6
 -0.0013364650     1    10     8     7
 0.0011787695     1    10     8    12
 0.0024313159     1    10     8    13
 -0.0013364650     1    10     9     6
 0.0027460080     1    10     9     7
 -0.0024313159     1    10     9    12
 0.0011787695     1    10     9    13
 -0.5533327552     1    10    10     1
 0.0196720333     1    10    10     3
 -0.0051210073     1    10    10     5
 0.0030921622     1    10    10    11
 0.0000000001     1    10    11     1
 -0.2243493296     1    10    11     2
 0.0151116448     1    10    11     4
 0.0008833445     1    10    12     8
 -0.0018219758     1    10    12     9
 0.0018219758     1    10    13     8
 0.0008833445     1    10    13     9
 0.0024039373     1    11     2     2
 -0.0000047209     1    11     2     4
 0.0000620605     1    11     2    10
 -0.0922774268     1    11     3     1
 0.0020348230     1    11     3     3
 0.0063374683     1    11     3     5
 0.0000000001     1    11     4     1
 -0.0898412247     1    11     4     2
 -0.0002057680     1    11     4     4
 0.0063773784     1    11     4    10
 -0.1548053210     1    11     5     1
 0.0193988519     1    11     5     3
 -0.0039394888     1    11     5     5
 -0.0048378753     1    11     6     6
 -0.0000123433     1    11     6    12
 0.0081757439     1    11     6    13
 -0.0048378753     1    11     7     7
 0.0081757439     1    11     7    12
 0.0000123433     1    11     7    13
 -0.0058249064     1    11     8     8
 -0.0058249064     1    11     9     9
 0.0000000001     1    11    10     1
 -0.2242872691     1    11    10     2
 0.0214890232     1    11    10     4
 -0.0030921622     1    11    10    10
 -0.5419978221     1    11    11     1
 0.0151807332     1    11    11     3
 -0.0119516553     1    11    11     5
 -0.0000139088     1    11    12     6
 0.0092126873     1    11    12     7
 -0.0104648744     1    11    12    12
 0.0092126873     1    11    13     6
 0.0000139088     1    11    13     7
 -0.0104648744     1    11    13    13
 -0.0000147086     1    12     2     8
 0.0000303378     1    12     2     9
 0.0000113269     1    12     3     6
 -0.0075025052     1    12     3     7
 -0.0032451673     1    12     4     8
 0.0066934431     1    12     4     9
 0.0000003157     1    12     5     6
 -0.0002091063     1    12     5     7
 -0.0003077521     1    12     6     1
 -0.0000000001     1    12     6     2
 0.0000344914     1    12     6     3
 -0.0000018259     1    12     6     5
 0.0000123433     1    12     6    11
 0.2038433443     1    12     7     1
 -0.0228457435     1    12     7     3
 0.0012094157     1    12     7     5
 -0.0081757439     1    12     7    11
 0.0913800402     1    12     8     2
 -0.0103242255     1    12     8     4
 -0.0011787695     1    12     8    10
 0.0000000002     1    12     9     1
 -0.1884793769     1    12     9     2
 0.0212946239     1    12     9     4
 0.0024313159     1    12     9    10
 -0.0002954250     1    12    10     8
 0.0006093401     1    12    10     9
 -0.0000015655     1    12    11     6
 0.0010369434     1    12    11     7
 -0.5160713904     1    12    12     1
 0.0197870552     1    12    12     3
 -0.0030278403     1    12    12     5
 0.0104648744     1    12    12    11
 -0.0000303378     1    13     2     8
 -0.0000147086     1    13     2     9
 -0.0075025052     1    13     3     6
 -0.0000113269     1    13     3     7
 -0.0066934431     1    13     4     8
 -0.0032451673     1    13     4     9
 -0.0002091063     1    13     5     6
 -0.0000003157     1    13     5     7
 0.2038433443     1    13     6     1
 -0.0228457435     1    13     6     3
 0.0012094157     1    13     6     5
 -0.0081757439     1    13     6    11
 0.0003077521     1    13     7     1
 -0.0000000001     1    13     7     2
 -0.0000344914     1    13     7     3
 0.0000018259     1    13     7     5
 -0.0000123433     1    13     7    11
 -0.0000000001     1    13     8     1
 0.1884793769     1    13     8     2
 -0.0212946239     1    13     8     4
 -0.0024313159     1    13     8    10
 -0.0000000001     1    13     9     1
 0.0913800402     1    13     9     2
 -0.0103242255     1    13     9     4
 -0.0011787695     1    13     9    10
 -0.0006093401     1    13    10     8
 -0.0002954250     1    13    10     9
 0.0010369434     1    13    11     6
 0.0000015655     1    13    11     7
 -0.5160713904     1    13    13     1
 0.0197870552     1    13    13     3
 -0.0030278403     1    13    13     5
 0.0104648744     1    13    13    11
 -0.1934287527     2     1     1     2
 0.0001602634     2     1     1     4
 -0.0024696775     2     1     1    10
 -0.0000559658     2     1     3     2
 0.3622129232     2     1     3     4
 0.0259149444     2     1     3    10
 0.3622127728     2     1     4     3
 -0.0560969997     2     1     4     5
 0.0898365038     2     1     4    11
 -0.0023292047     2     1     5     2
 -0.0560923939     2     1     5     4
 0.3277285257     2     1     5    10
 -0.0000000001     2     1     6     6
 -0.0000000002     2     1     6     7
 0.3035964042     2     1     6     8
 0.1477584830     2     1     6     9
 0.0000000001     2     1     6    12
 -0.0000000002     2     1     7     6
 0.0000000001     2     1     7     7
 0.1477584830     2     1     7     8
 -0.3035964042     2     1     7     9
 0.0000000001     2     1     7    13
 0.3036232415     2     1     8     6
 0.1477715445     2     1     8     7
 0.0000000002     2     1     8     8
 -0.0913947488     2     1     8    12
 -0.1885097147     2     1     8    13
 0.1477715445     2     1     9     6
 -0.3036232415     2     1     9     7
 -0.0000000002     2     1     9     9
 0.1885097147     2     1     9    12
 -0.0913947488     2     1     9    13
 0.0259172427     2     1    10     3
 0.3277880579     2     1    10     5
 0.2243493296     2     1    10    11
 -0.0024039373     2     1    11     2
 0.0898412247     2     1    11     4
 0.2242872691     2     1    11    10
 0.0000000001     2     1    12     6
 -0.0913800402     2     1    12     8
 0.1884793769     2     1    12     9
 0.0000000001     2     1    13     7
 -0.1884793769     2     1    13     8
 -0.0913800402     2     1    13     9
 0.1934287527     2     2     1     1
 0.0000559658     2     2     1     3
 0.0023292047     2     2     1     5
 0.0024039373     2     2     1    11
 0.0000559658     2     2     3     1
 0.5529935040     2     2     3     3
 0.0000000002     2     2     3     4
 0.0020352117     2     2     3     5
 0.0922813027     2     2     3    11
 0.0000000002     2     2     4     3
 0.5588222543     2     2     4     4
 0.0252111521     2     2     4    10
 0.0000000001     2     2     4    11
 0.0023292047     2     2     5     1
 0.0020352117     2     2     5     3
 0.5173914322     2     2     5     5
 0.0000000002     2     2     5    10
 0.1548636258     2     2     5    11
 0.5224827222     2     2     6     6
 0.0000000002     2     2     6     8
 0.0000000001     2     2     6     9
 0.0003078026     2     2     6    12
 -0.2038767318     2     2     6    13
 0.5224827222     2     2     7     7
 0.0000000001     2     2     7     8
 -0.0000000002     2     2     7     9
 -0.2038767318     2     2     7    12
 -0.0003078026     2     2     7    13
 0.0000000002     2     2     8     6
 0.0000000001     2     2     8     7
 0.5318196451     2     2     8     8
 -0.0000000001     2     2     8    12
 -0.0000000002     2     2     8    13
 0.0000000001     2     2     9     6
 -0.0000000002     2     2     9     7
 0.5318196451     2     2     9     9
 0.0000000001     2     2     9    12
 0.0252111521     2     2    10     4
 0.0000000002     2     2    10     5
 0.5532691360     2     2    10    10
 0.0000000001     2     2    10    11
 0.0024039373     2     2    11     1
 0.0922813027     2     2    11     3
 0.0000000001     2     2    11     4
 0.1548636258     2     2    11     5
 0.0000000001     2     2    11    10
 0.5420596171     2     2    11    11
 0.0003078026     2     2    12     6
 -0.2038767318     2     2    12     7
 -0.0000000001     2     2    12     8
 0.0000000001     2     2    12     9
 0.5161088710     2     2    12    12
 -0.2038767318     2     2    13     6
 -0.0003078026     2     2    13     7
 -0.0000000002     2     2    13     8
 0.5161088710     2     2    13    13
 -0.0000559658     2     3     1     2
 0.0000001504     2     3     1     4
 -0.0000022983     2     3     1    10
 -0.5529935040     2     3     3     2
 0.0000347159     2     3     3     4
 -0.0017406278     2     3     3    10
 -0.3622127728     2     3     4     1
 -0.0000000002     2     3     4     2
 0.0022550675     2     3     4     5
 0.0019504266     2     3     4    11
 -0.0020352117     2     3     5     2
 0.0013395592     2     3     5     4
 -0.0191470918     2     3     5    10
 -0.0168913940     2     3     6     8
 -0.0082209365     2     3     6     9
 -0.0082209365     2     3     7     8
 0.0168913940     2     3     7     9
 -0.0164600033     2     3     8     6
 -0.0080109813     2     3     8     7
 0.0099895437     2     3     8    12
 0.0206043132     2     3     8    13
 -0.0080109813     2     3     9     6
 0.0164600033     2     3     9     7
 -0.0206043132     2     3     9    12
 0.0099895437     2     3     9    13
 -0.0259172427     2     3    10     1
 -0.0178598456     2     3    10     5
 -0.0201174619     2     3    10    11
 -0.0922813027     2     3    11     2
 0.0009966235     2     3    11     4
 -0.0144667520     2     3    11    10
 0.0068768765     2     3    12     8
 -0.0141841631     2     3    12     9
 0.0141841631     2     3    13     8
 0.0068768765     2     3    13     9
 -0.0001602634     2     4     1     1
 -0.0000001504     2     4     1     3
 -0.0000046058     2     4     1     5
 -0.0000047209     2     4     1    11
 -0.3622129232     2     4     3     1
 -0.0000000002     2     4     3     2
 -0.0000347159     2     4     3     3
 0.0009155083     2     4     3     5
 0.0009538031     2     4     3    11
 -0.5588222543     2     4     4     2
 0.0000424262     2     4     4    10
 0.0560923939     2     4     5     1
 -0.0013395592     2     4     5     3
 -0.0168652989     2     4     5     5
 -0.0192389034     2     4     5    11
 -0.0182630822     2     4     6     6
 -0.0000343840     2     4     6    12
 0.0227746712     2     4     6    13
 -0.0182630822     2     4     7     7
 0.0227746712     2     4     7    12
 0.0000343840     2     4     7    13
 -0.0194789363     2     4     8     8
 -0.0194789363     2     4     9     9
 -0.0252111521     2     4    10     2
 -0.0208577370     2     4    10    10
 -0.0898412247     2     4    11     1
 -0.0000000001     2     4    11     2
 -0.0009966235     2     4    11     3
 -0.0134131940     2     4    11     5
 -0.0165176572     2     4    11    11
 -0.0000238712     2     4    12     6
 0.0158113745     2     4    12     7
 -0.0204762759     2     4    12    12
 0.0158113745     2     4    13     6
 0.0000238712     2     4    13     7
 -0.0204762759     2     4    13    13
 -0.0023292047     2     5     1     2
 0.0000046058     2     5     1     4
 -0.0000595322     2     5     1    10
 -0.0020352117     2     5     3     2
 -0.0009155083     2     5     3     4
 -0.0012872462     2     5     3    10
 0.0560969997     2     5     4     1
 -0.0022550675     2     5     4     3
 -0.0058257094     2     5     4    11
 -0.5173914322     2     5     5     2
 0.0168652989     2     5     5     4
 -0.0004709534     2     5     5    10
 -0.0000190041     2     5     6     8
 -0.0000092492     2     5     6     9
 -0.0000092492     2     5     7     8
 0.0000190041     2     5     7     9
 0.0002661576     2     5     8     6
 0.0001295372     2     5     8     7
 -0.0006530344     2     5     8    12
 -0.0013469409     2     5     8    13
 0.0001295372     2     5     9     6
 -0.0002661576     2     5     9     7
 0.0013469409     2     5     9    12
 -0.0006530344     2     5     9    13
 -0.3277880579     2     5    10     1
 -0.0000000002     2     5    10     2
 0.0178598456     2     5    10     3
 0.0078970610     2     5    10    11
 -0.1548636258     2     5    11     2
 0.0134131940     2     5    11     4
 0.0032672634     2     5    11    10
 -0.0005763536     2     5    12     8
 0.0011887800     2     5    12     9
 -0.0011887800     2     5    13     8
 -0.0005763536     2     5    13     9
 -0.0000268373     2     6     1     8
 -0.0000130615     2     6     1     9
 -0.0004313907     2     6     3     8
 -0.0002099552     2     6     3     9
 -0.0000105128     2     6     4    12
 0.0069632967     2     6     4    13
 -0.0002851617     2     6     5     8
 -0.0001387864     2     6     5     9
 0.0000000001     2     6     6     1
 -0.5224827222     2     6     6     2
 0.0182630822     2     6     6     4
 0.0005132958     2     6     6    10
 0.0000000002     2     6     7     1
 -0.3036232415     2     6     8     1
 -0.0000000002     2     6     8     2
 0.0164600033     2     6     8     3
 -0.0002661576     2     6     8     5
 0.0069245097     2     6     8    11
 -0.1477715445     2     6     9     1
 -0.0000000001     2     6     9     2
 0.0080109813     2     6     9     3
 -0.0001295372     2     6     9     5
 0.0033701158     2     6     9    11
 -0.0000010658     2     6    10    12
 0.0007059452     2     6    10    13
 0.0002161907     2     6    11     8
 0.0001052187     2     6    11     9
 -0.0000000001     2     6    12     1
 -0.0003078026     2     6    12     2
 0.0000238712     2     6    12     4
 0.0000027910     2     6    12    10
 0.2038767318     2     6    13     2
 -0.0158113745     2     6    13     4
 -0.0018486569     2     6    13    10
 -0.0000130615     2     7     1     8
 0.0000268373     2     7     1     9
 -0.0002099552     2     7     3     8
 0.0004313907     2     7     3     9
 0.0069632967     2     7     4    12
 0.0000105128     2     7     4    13
 -0.0001387864     2     7     5     8
 0.0002851617     2     7     5     9
 0.0000000002     2     7     6     1
 -0.0000000001     2     7     7     1
 -0.5224827222     2     7     7     2
 0.0182630822     2     7     7     4
 0.0005132958     2     7     7    10
 -0.1477715445     2     7     8     1
 -0.0000000001     2     7     8     2
 0.0080109813     2     7     8     3
 -0.0001295372     2     7     8     5
 0.0033701158     2     7     8    11
 0.3036232415     2     7     9     1
 0.0000000002     2     7     9     2
 -0.0164600033     2     7     9     3
 0.0002661576     2     7     9     5
 -0.0069245097     2     7     9    11
 0.0007059452     2     7    10    12
 0.0000010658     2     7    10    13
 0.0001052187     2     7    11     8
 -0.0002161907     2     7    11     9
 0.2038767318     2     7    12     2
 -0.0158113745     2     7    12     4
 -0.0018486569     2     7    12    10
 -0.0000000001     2     7    13     1
 0.0003078026     2     7    13     2
 -0.0000238712     2     7    13     4
 -0.0000027910     2     7    13    10
 0.0000268373     2     8     1     6
 0.0000130615     2     8     1     7
 -0.0000147086     2     8     1    12
 -0.0000303378     2     8     1    13
 0.0004313907     2     8     3     6
 0.0002099552     2     8     3     7
 0.0031126672     2     8     3    12
 0.0064201501     2     8     3    13
 0.0002851617     2     8     5     6
 0.0001387864     2     8     5     7
 -0.0000766808     2     8     5    12
 -0.0001581609     2     8     5    13
 -0.3035964042     2     8     6     1
 -0.0000000002     2     8     6     2
 0.0168913940     2     8     6     3
 0.0000190041     2     8     6     5
 0.0067083190     2     8     6    11
 -0.1477584830     2     8     7     1
 -0.0000000001     2     8     7     2
 0.0082209365     2     8     7     3
 0.0000092492     2     8     7     5
 0.0032648971     2     8     7    11
 -0.0000000002     2     8     8     1
 -0.5318196451     2     8     8     2
 0.0194789363     2     8     8     4
 0.0009800889     2     8     8    10
 -0.0002161907     2     8    11     6
 -0.0001052187     2     8    11     7
 -0.0003400015     2     8    11    12
 -0.0007012830     2     8    11    13
 0.0913800402     2     8    12     1
 0.0000000001     2     8    12     2
 -0.0068768765     2     8    12     3