&FCI NORB= 13,NELEC= 14,MS2=0,
 ORBSYM=1,1,1,1,1,1,1,1,1,1,1,1,1
 ISYM=1,
&END
 0.4397422618     1     1     2     2
 0.0056628046     1     1     2     4
 0.0040715103     1     1     2    10
 0.7544083517     1     1     3     3
 0.0876284731     1     1     3     5
 0.0817402463     1     1     3    11
 0.0056628046     1     1     4     2
 0.6284832538     1     1     4     4
 -0.1066250522     1     1     4    10
 0.0876284731     1     1     5     3
 0.6653159266     1     1     5     5
 0.1600186399     1     1     5    11
 0.6461387446     1     1     6     6
 -0.1089495267     1     1     6    12
 0.1790866332     1     1     6    13
 0.6461387446     1     1     7     7
 0.1790866332     1     1     7    12
 0.1089495267     1     1     7    13
 0.6079388192     1     1     8     8
 0.6079388192     1     1     9     9
 0.0040715103     1     1    10     2
 -0.1066250522     1     1    10     4
 0.4609742315     1     1    10    10
 0.0817402463     1     1    11     3
 0.1600186399     1     1    11     5
 0.4942018151     1     1    11    11
 -0.1089495267     1     1    12     6
 0.1790866332     1     1    12     7
 0.5767813366     1     1    12    12
 0.1790866332     1     1    13     6
 0.1089495267     1     1    13     7
 0.5767813366     1     1    13    13
 -0.4397422618     1     2     2     1
 -0.0072317628     1     2     2     3
 -0.0135764317     1     2     2     5
 -0.0101372690     1     2     2    11
 -0.1688812770     1     2     3     4
 0.1224520792     1     2     3    10
 -0.0056628046     1     2     4     1
 -0.1690807480     1     2     4     3
 0.2294539867     1     2     4     5
 0.0283745598     1     2     4    11
 0.2298001610     1     2     5     4
 0.0575688586     1     2     5    10
 0.1347561230     1     2     6     8
 -0.1490962159     1     2     6     9
 0.1490962159     1     2     7     8
 0.1347561230     1     2     7     9
 0.1345076521     1     2     8     6
 0.1488213040     1     2     8     7
 0.0428786090     1     2     8    12
 0.1440413876     1     2     8    13
 -0.1488213040     1     2     9     6
 0.1345076521     1     2     9     7
 0.1440413876     1     2     9    12
 -0.0428786090     1     2     9    13
 -0.0040715103     1     2    10     1
 0.1222546073     1     2    10     3
 0.0573196719     1     2    10     5
 -0.0221491656     1     2    10    11
 0.0286472774     1     2    11     4
 -0.0219573672     1     2    11    10
 0.0429837724     1     2    12     8
 0.1443946614     1     2    12     9
 0.1443946614     1     2    13     8
 -0.0429837724     1     2    13     9
 0.0072317628     1     3     2     2
 0.0001908966     1     3     2     4
 0.0001595492     1     3     2    10
 -0.7544083517     1     3     3     1
 -0.0185571504     1     3     3     5
 -0.0153135789     1     3     3    11
 0.1690807480     1     3     4     2
 -0.0074994507     1     3     4     4
 -0.0030078714     1     3     4    10
 -0.0876284731     1     3     5     1
 -0.0236547474     1     3     5     5
 -0.0137972928     1     3     5    11
 -0.0166645298     1     3     6     6
 0.0109411077     1     3     6    12
 -0.0179845311     1     3     6    13
 -0.0166645298     1     3     7     7
 -0.0179845311     1     3     7    12
 -0.0109411077     1     3     7    13
 -0.0145527156     1     3     8     8
 -0.0145527156     1     3     9     9
 -0.1222546073     1     3    10     2
 -0.0044681791     1     3    10     4
 -0.0006342808     1     3    10    10
 -0.0817402463     1     3    11     1
 -0.0114511771     1     3    11     5
 -0.0080966966     1     3    11    11
 0.0063255205     1     3    12     6
 -0.0103976237     1     3    12     7
 -0.0152659837     1     3    12    12
 -0.0103976237     1     3    13     6
 -0.0063255205     1     3    13     7
 -0.0152659837     1     3    13    13
 -0.0056628046     1     4     2     1
 -0.0001908966     1     4     2     3
 -0.0003494936     1     4     2     5
 -0.0002825733     1     4     2    11
 0.1688812770     1     4     3     2
 0.0017822888     1     4     3    10
 -0.6284832538     1     4     4     1
 0.0074994507     1     4     4     3
 0.0026807067     1     4     4     5
 0.0062974227     1     4     4    11
 -0.2298001610     1     4     5     2
 0.0096580272     1     4     5    10
 0.0081698833     1     4     6     8
 -0.0090392827     1     4     6     9
 0.0090392827     1     4     7     8
 0.0081698833     1     4     7     9
 0.0090600158     1     4     8     6
 0.0100241387     1     4     8     7
 0.0057810535     1     4     8    12
 0.0194201957     1     4     8    13
 -0.0100241387     1     4     9     6
 0.0090600158     1     4     9     7
 0.0194201957     1     4     9    12
 -0.0057810535     1     4     9    13
 0.1066250522     1     4    10     1
 0.0044681791     1     4    10     3
 0.0061105838     1     4    10     5
 0.0074750615     1     4    10    11
 -0.0286472774     1     4    11     2
 0.0062773417     1     4    11    10
 0.0035018087     1     4    12     8
 0.0117635668     1     4    12     9
 0.0117635668     1     4    13     8
 -0.0035018087     1     4    13     9
 0.0135764317     1     5     2     2
 0.0003494936     1     5     2     4
 0.0002568474     1     5     2    10
 -0.0876284731     1     5     3     1
 0.0185571504     1     5     3     3
 -0.0022152101     1     5     3    11
 -0.2294539867     1     5     4     2
 -0.0026807067     1     5     4     4
 0.0032755191     1     5     4    10
 -0.6653159266     1     5     5     1
 0.0236547474     1     5     5     3
 0.0092031799     1     5     5    11
 0.0128321243     1     5     6     6
 -0.0053239770     1     5     6    12
 0.0087513287     1     5     6    13
 0.0128321243     1     5     7     7
 0.0087513287     1     5     7    12
 0.0053239770     1     5     7    13
 0.0087823219     1     5     8     8
 0.0087823219     1     5     9     9
 -0.0573196719     1     5    10     2
 -0.0061105838     1     5    10     4
 0.0056960797     1     5    10    10
 -0.1600186399     1     5    11     1
 0.0114511771     1     5    11     3
 0.0036126496     1     5    11    11
 -0.0033371009     1     5    12     6
 0.0054853857     1     5    12     7
 0.0085424774     1     5    12    12
 0.0054853857     1     5    13     6
 0.0033371009     1     5    13     7
 0.0085424774     1     5    13    13
 0.0002388088     1     6     2     8
 -0.0002642216     1     6     2     9
 0.0044433523     1     6     3    12
 -0.0073037950     1     6     3    13
 -0.0012599176     1     6     4     8
 0.0013939920     1     6     4     9
 -0.0018657967     1     6     5    12
 0.0030669178     1     6     5    13
 -0.6461387446     1     6     6     1
 0.0166645298     1     6     6     3
 -0.0128321243     1     6     6     5
 -0.0073083036     1     6     6    11
 -0.1345076521     1     6     8     2
 -0.0090600158     1     6     8     4
 0.0074171543     1     6     8    10
 0.1488213040     1     6     9     2
 0.0100241387     1     6     9     4
 -0.0082064518     1     6     9    10
 0.0004985890     1     6    10     8
 -0.0005516463     1     6    10     9
 -0.0021540023     1     6    11    12
 0.0035406580     1     6    11    13
 0.1089495267     1     6    12     1
 -0.0063255205     1     6    12     3
 0.0033371009     1     6    12     5
 0.0004350359     1     6    12    11
 -0.1790866332     1     6    13     1
 0.0103976237     1     6    13     3
 -0.0054853857     1     6    13     5
 -0.0007150938     1     6    13    11
 0.0002642216     1     7     2     8
 0.0002388088     1     7     2     9
 -0.0073037950     1     7     3    12
 -0.0044433523     1     7     3    13
 -0.0013939920     1     7     4     8
 -0.0012599176     1     7     4     9
 0.0030669178     1     7     5    12
 0.0018657967     1     7     5    13
 -0.6461387446     1     7     7     1
 0.0166645298     1     7     7     3
 -0.0128321243     1     7     7     5
 -0.0073083036     1     7     7    11
 -0.1488213040     1     7     8     2
 -0.0100241387     1     7     8     4
 0.0082064518     1     7     8    10
 -0.1345076521     1     7     9     2
 -0.0090600158     1     7     9     4
 0.0074171543     1     7     9    10
 0.0005516463     1     7    10     8
 0.0004985890     1     7    10     9
 0.0035406580     1     7    11    12
 0.0021540023     1     7    11    13
 -0.1790866332     1     7    12     1
 0.0103976237     1     7    12     3
 -0.0054853857     1     7    12     5
 -0.0007150938     1     7    12    11
 -0.1089495267     1     7    13     1
 0.0063255205     1     7    13     3
 -0.0033371009     1     7    13     5
 -0.0004350359     1     7    13    11
 -0.0002388088     1     8     2     6
 -0.0002642216     1     8     2     7
 -0.0001072190     1     8     2    12
 -0.0003601790     1     8     2    13
 0.0012599176     1     8     4     6
 0.0013939920     1     8     4     7
 0.0021475252     1     8     4    12
 0.0072141449     1     8     4    13
 -0.1347561230     1     8     6     2
 -0.0081698833     1     8     6     4
 0.0067218757     1     8     6    10
 -0.1490962159     1     8     7     2
 -0.0090392827     1     8     7     4
 0.0074371851     1     8     7    10
 -0.6079388192     1     8     8     1
 0.0145527156     1     8     8     3
 -0.0087823219     1     8     8     5
 -0.0018083096     1     8     8    11
 -0.0004985890     1     8    10     6
 -0.0005516463     1     8    10     7
 -0.0008191995     1     8    10    12
 -0.0027519230     1     8    10    13
 -0.0429837724     1     8    12     2
 -0.0035018087     1     8    12     4
 0.0026311657     1     8    12    10
 -0.1443946614     1     8    13     2
 -0.0117635668     1     8    13     4
 0.0088388303     1     8    13    10
 0.0002642216     1     9     2     6
 -0.0002388088     1     9     2     7
 -0.0003601790     1     9     2    12
 0.0001072190     1     9     2    13
 -0.0013939920     1     9     4     6
 0.0012599176     1     9     4     7
 0.0072141449     1     9     4    12
 -0.0021475252     1     9     4    13
 0.1490962159     1     9     6     2
 0.0090392827     1     9     6     4
 -0.0074371851     1     9     6    10
 -0.1347561230     1     9     7     2
 -0.0081698833     1     9     7     4
 0.0067218757     1     9     7    10
 -0.6079388192     1     9     9     1
 0.0145527156     1     9     9     3
 -0.0087823219     1     9     9     5
 -0.0018083096     1     9     9    11
 0.0005516463     1     9    10     6
 -0.0004985890     1     9    10     7
 -0.0027519230     1     9    10    12
 0.0008191995     1     9    10    13
 -0.1443946614     1     9    12     2
 -0.0117635668     1     9    12     4
 0.0088388303     1     9    12    10
 0.0429837724     1     9    13     2
 0.0035018087     1     9    13     4
 -0.0026311657     1     9    13    10
 -0.0040715103     1    10     2     1
 -0.0001595492     1    10     2     3
 -0.0002568474     1    10     2     5
 -0.0001908232     1    10     2    11
 -0.1224520792     1    10     3     2
 -0.0017822888     1    10     3     4
 0.1066250522     1    10     4     1
 0.0030078714     1    10     4     3
 -0.0032755191     1    10     4     5
 0.0011402815     1    10     4    11
 -0.0575688586     1    10     5     2
 -0.0096580272     1    10     5     4
 -0.0067218757     1    10     6     8
 0.0074371851     1    10     6     9
 -0.0074371851     1    10     7     8
 -0.0067218757     1    10     7     9
 -0.0074171543     1    10     8     6
 -0.0082064518     1    10     8     7
 -0.0034701650     1    10     8    12
 -0.0116572667     1    10     8    13
 0.0082064518     1    10     9     6
 -0.0074171543     1    10     9     7
 -0.0116572667     1    10     9    12
 0.0034701650     1    10     9    13
 -0.4609742315     1    10    10     1
 0.0006342808     1    10    10     3
 -0.0056960797     1    10    10     5
 -0.0020490440     1    10    10    11
 0.0219573672     1    10    11     2
 -0.0062773417     1    10    11     4
 -0.0026311657     1    10    12     8
 -0.0088388303     1    10    12     9
 -0.0088388303     1    10    13     8
 0.0026311657     1    10    13     9
 0.0101372690     1    11     2     2
 0.0002825733     1    11     2     4
 0.0001908232     1    11     2    10
 -0.0817402463     1    11     3     1
 0.0153135789     1    11     3     3
 0.0022152101     1    11     3     5
 -0.0283745598     1    11     4     2
 -0.0062974227     1    11     4     4
 -0.0011402815     1    11     4    10
 -0.1600186399     1    11     5     1
 0.0137972928     1    11     5     3
 -0.0092031799     1    11     5     5
 0.0073083036     1    11     6     6
 -0.0026273708     1    11     6    12
 0.0043187612     1    11     6    13
 0.0073083036     1    11     7     7
 0.0043187612     1    11     7    12
 0.0026273708     1    11     7    13
 0.0018083096     1    11     8     8
 0.0018083096     1    11     9     9
 0.0221491656     1    11    10     2
 -0.0074750615     1    11    10     4
 0.0020490440     1    11    10    10
 -0.4942018151     1    11    11     1
 0.0080966966     1    11    11     3
 -0.0036126496     1    11    11     5
 -0.0004350359     1    11    12     6
 0.0007150938     1    11    12     7
 0.0015107694     1    11    12    12
 0.0007150938     1    11    13     6
 0.0004350359     1    11    13     7
 0.0015107694     1    11    13    13
 0.0001072190     1    12     2     8
 0.0003601790     1    12     2     9
 -0.0044433523     1    12     3     6
 0.0073037950     1    12     3     7
 -0.0021475252     1    12     4     8
 -0.0072141449     1    12     4     9
 0.0018657967     1    12     5     6
 -0.0030669178     1    12     5     7
 0.1089495267     1    12     6     1
 -0.0109411077     1    12     6     3
 0.0053239770     1    12     6     5
 0.0026273708     1    12     6    11
 -0.1790866332     1    12     7     1
 0.0179845311     1    12     7     3
 -0.0087513287     1    12     7     5
 -0.0043187612     1    12     7    11
 -0.0428786090     1    12     8     2
 -0.0057810535     1    12     8     4
 0.0034701650     1    12     8    10
 -0.1440413876     1    12     9     2
 -0.0194201957     1    12     9     4
 0.0116572667     1    12     9    10
 0.0008191995     1    12    10     8
 0.0027519230     1    12    10     9
 0.0021540023     1    12    11     6
 -0.0035406580     1    12    11     7
 -0.5767813366     1    12    12     1
 0.0152659837     1    12    12     3
 -0.0085424774     1    12    12     5
 -0.0015107694     1    12    12    11
 0.0003601790     1    13     2     8
 -0.0001072190     1    13     2     9
 0.0073037950     1    13     3     6
 0.0044433523     1    13     3     7
 -0.0072141449     1    13     4     8
 0.0021475252     1    13     4     9
 -0.0030669178     1    13     5     6
 -0.0018657967     1    13     5     7
 -0.1790866332     1    13     6     1
 0.0179845311     1    13     6     3
 -0.0087513287     1    13     6     5
 -0.0043187612     1    13     6    11
 -0.1089495267     1    13     7     1
 0.0109411077     1    13     7     3
 -0.0053239770     1    13     7     5
 -0.0026273708     1    13     7    11
 -0.1440413876     1    13     8     2
 -0.0194201957     1    13     8     4
 0.0116572667     1    13     8    10
 0.0428786090     1    13     9     2
 0.0057810535     1    13     9     4
 -0.0034701650     1    13     9    10
 0.0027519230     1    13    10     8
 -0.0008191995     1    13    10     9
 -0.0035406580     1    13    11     6
 -0.0021540023     1    13    11     7
 -0.5767813366     1    13    13     1
 0.0152659837     1    13    13     3
 -0.0085424774     1    13    13     5
 -0.0015107694     1    13    13    11
 -0.4397422618     2     1     1     2
 -0.0056628046     2     1     1     4
 -0.0040715103     2     1     1    10
 -0.0072317628     2     1     3     2
 -0.1690807480     2     1     3     4
 0.1222546073     2     1     3    10
 -0.1688812770     2     1     4     3
 0.2298001610     2     1     4     5
 0.0286472774     2     1     4    11
 -0.0135764317     2     1     5     2
 0.2294539867     2     1     5     4
 0.0573196719     2     1     5    10
 0.1345076521     2     1     6     8
 -0.1488213040     2     1     6     9
 0.1488213040     2     1     7     8
 0.1345076521     2     1     7     9
 0.1347561230     2     1     8     6
 0.1490962159     2     1     8     7
 0.0429837724     2     1     8    12
 0.1443946614     2     1     8    13
 -0.1490962159     2     1     9     6
 0.1347561230     2     1     9     7
 0.1443946614     2     1     9    12
 -0.0429837724     2     1     9    13
 0.1224520792     2     1    10     3
 0.0575688586     2     1    10     5
 -0.0219573672     2     1    10    11
 -0.0101372690     2     1    11     2
 0.0283745598     2     1    11     4
 -0.0221491656     2     1    11    10
 0.0428786090     2     1    12     8
 0.1440413876     2     1    12     9
 0.1440413876     2     1    13     8
 -0.0428786090     2     1    13     9
 0.4397422618     2     2     1     1
 0.0072317628     2     2     1     3
 0.0135764317     2     2     1     5
 0.0101372690     2     2     1    11
 0.0072317628     2     2     3     1
 0.7545935046     2     2     3     3
 0.0880415931     2     2     3     5
 0.0820595112     2     2     3    11
 0.6283473495     2     2     4     4
 -0.1066985854     2     2     4    10
 0.0135764317     2     2     5     1
 0.0880415931     2     2     5     3
 0.6661671152     2     2     5     5
 0.1606703503     2     2     5    11
 0.6465447178     2     2     6     6
 -0.1091820820     2     2     6    12
 0.1794688978     2     2     6    13
 0.6465447178     2     2     7     7
 0.1794688978     2     2     7    12
 0.1091820820     2     2     7    13
 0.6076624738     2     2     8     8
 0.6076624738     2     2     9     9
 -0.1066985854     2     2    10     4
 0.4608865262     2     2    10    10
 0.0101372690     2     2    11     1
 0.0820595112     2     2    11     3
 0.1606703503     2     2    11     5
 0.4947074721     2     2    11    11
 -0.1091820820     2     2    12     6
 0.1794688978     2     2    12     7
 0.5772638297     2     2    12    12
 0.1794688978     2     2    13     6
 0.1091820820     2     2    13     7
 0.5772638297     2     2    13    13
 -0.0072317628     2     3     1     2
 -0.0001908966     2     3     1     4
 -0.0001595492     2     3     1    10
 -0.7545935046     2     3     3     2
 -0.0096652188     2     3     3     4
 -0.0065785450     2     3     3    10
 0.1688812770     2     3     4     1
 -0.0148716831     2     3     4     5
 -0.0056728243     2     3     4    11
 -0.0880415931     2     3     5     2
 -0.0196965633     2     3     5     4
 -0.0055251855     2     3     5    10
 -0.0139868745     2     3     6     8
 0.0154752899     2     3     6     9
 -0.0154752899     2     3     7     8
 -0.0139868745     2     3     7     9
 -0.0099281947     2     3     8     6
 -0.0109847050     2     3     8     7
 -0.0051278095     2     3     8    12
 -0.0172257639     2     3     8    13
 0.0109847050     2     3     9     6
 -0.0099281947     2     3     9     7
 -0.0172257639     2     3     9    12
 0.0051278095     2     3     9    13
 -0.1224520792     2     3    10     1
 -0.0057930945     2     3    10     5
 -0.0016369199     2     3    10    11
 -0.0820595112     2     3    11     2
 -0.0083089720     2     3    11     4
 -0.0003740662     2     3    11    10
 -0.0042983521     2     3    12     8
 -0.0144393816     2     3    12     9
 -0.0144393816     2     3    13     8
 0.0042983521     2     3    13     9
 0.0056628046     2     4     1     1
 0.0001908966     2     4     1     3
 0.0003494936     2     4     1     5
 0.0002825733     2     4     1    11
 0.1690807480     2     4     3     1
 0.0096652188     2     4     3     3
 0.0048537480     2     4     3     5
 0.0029486955     2     4     3    11
 -0.6283473495     2     4     4     2
 0.0022519744     2     4     4    10
 -0.2294539867     2     4     5     1
 0.0196965633     2     4     5     3
 0.0202204488     2     4     5     5
 0.0191656148     2     4     5    11
 0.0186145858     2     4     6     6
 -0.0101267302     2     4     6    12
 0.0166458916     2     4     6    13
 0.0186145858     2     4     7     7
 0.0166458916     2     4     7    12
 0.0101267302     2     4     7    13
 0.0184971100     2     4     8     8
 0.0184971100     2     4     9     9
 0.1066985854     2     4    10     2
 0.0051277004     2     4    10    10
 -0.0283745598     2     4    11     1
 0.0083089720     2     4    11     3
 0.0084703887     2     4    11     5
 0.0085989349     2     4    11    11
 -0.0069542339     2     4    12     6
 0.0114310762     2     4    12     7
 0.0172245529     2     4    12    12
 0.0114310762     2     4    13     6
 0.0069542339     2     4    13     7
 0.0172245529     2     4    13    13
 -0.0135764317     2     5     1     2
 -0.0003494936     2     5     1     4
 -0.0002568474     2     5     1    10
 -0.0880415931     2     5     3     2
 -0.0048537480     2     5     3     4
 0.0002961056     2     5     3    10
 -0.2298001610     2     5     4     1
 0.0148716831     2     5     4     3
 0.0104304448     2     5     4    11
 -0.6661671152     2     5     5     2
 -0.0202204488     2     5     5     4
 0.0063665057     2     5     5    10
 0.0003676925     2     5     6     8
 -0.0004068206     2     5     6     9
 0.0004068206     2     5     7     8
 0.0003676925     2     5     7     9
 0.0014412632     2     5     8     6
 0.0015946353     2     5     8     7
 0.0021883118     2     5     8    12
 0.0073511588     2     5     8    13
 -0.0015946353     2     5     9     6
 0.0014412632     2     5     9     7
 0.0073511588     2     5     9    12
 -0.0021883118     2     5     9    13
 -0.0575688586     2     5    10     1
 0.0057930945     2     5    10     3
 0.0064448550     2     5    10    11
 -0.1606703503     2     5    11     2
 -0.0084703887     2     5    11     4
 0.0079831656     2     5    11    10
 0.0006552086     2     5    12     8
 0.0022010310     2     5    12     9
 0.0022010310     2     5    13     8
 -0.0006552086     2     5    13     9
 -0.0002388088     2     6     1     8
 0.0002642216     2     6     1     9
 -0.0033605140     2     6     3     8
 0.0037181236     2     6     3     9
 -0.0029074540     2     6     4    12
 0.0047791502     2     6     4    13
 -0.0008738365     2     6     5     8
 0.0009668259     2     6     5     9
 -0.6465447178     2     6     6     2
 -0.0186145858     2     6     6     4
 0.0067900331     2     6     6    10
 -0.1347561230     2     6     8     1
 0.0099281947     2     6     8     3
 -0.0014412632     2     6     8     5
 0.0016851489     2     6     8    11
 0.1490962159     2     6     9     1
 -0.0109847050     2     6     9     3
 0.0015946353     2     6     9     5
 -0.0018644743     2     6     9    11
 0.0010989006     2     6    10    12
 -0.0018063265     2     6    10    13
 0.0007918998     2     6    11     8
 -0.0008761699     2     6    11     9
 0.1091820820     2     6    12     2
 0.0069542339     2     6    12     4
 -0.0039578250     2     6    12    10
 -0.1794688978     2     6    13     2
 -0.0114310762     2     6    13     4
 0.0065057057     2     6    13    10
 -0.0002642216     2     7     1     8
 -0.0002388088     2     7     1     9
 -0.0037181236     2     7     3     8
 -0.0033605140     2     7     3     9
 0.0047791502     2     7     4    12
 0.0029074540     2     7     4    13
 -0.0009668259     2     7     5     8
 -0.0008738365     2     7     5     9
 -0.6465447178     2     7     7     2
 -0.0186145858     2     7     7     4
 0.0067900331     2     7     7    10
 -0.1490962159     2     7     8     1
 0.0109847050     2     7     8     3
 -0.0015946353     2     7     8     5
 0.0018644743     2     7     8    11
 -0.1347561230     2     7     9     1
 0.0099281947     2     7     9     3
 -0.0014412632     2     7     9     5
 0.0016851489     2     7     9    11
 -0.0018063265     2     7    10    12
 -0.0010989006     2     7    10    13
 0.0008761699     2     7    11     8
 0.0007918998     2     7    11     9
 -0.1794688978     2     7    12     2
 -0.0114310762     2     7    12     4
 0.0065057057     2     7    12    10
 -0.1091820820     2     7    13     2
 -0.0069542339     2     7    13     4
 0.0039578250     2     7    13    10
 0.0002388088     2     8     1     6
 0.0002642216     2     8     1     7
 0.0001072190     2     8     1    12
 0.0003601790     2     8     1    13
 0.0033605140     2     8     3     6
 0.0037181236     2     8     3     7
 -0.0007994783     2     8     3    12
 -0.0026856741     2     8     3    13
 0.0008738365     2     8     5     6
 0.0009668259     2     8     5     7
 0.0014908863     2     8     5    12
 0.0050083094     2     8     5    13
 -0.1345076521     2     8     6     1
 0.0139868745     2     8     6     3
 -0.0003676925     2     8     6     5
 0.0009792134     2     8     6    11
 -0.1488213040     2     8     7     1
 0.0154752899     2     8     7     3
 -0.0004068206     2     8     7     5
 0.0010834166     2     8     7    11
 -0.6076624738     2     8     8     2
 -0.0184971100     2     8     8     4
 0.0096326409     2     8     8    10
 -0.0007918998     2     8    11     6
 -0.0008761699     2     8    11     7
 0.0007809990     2     8    11    12
 0.0026235968     2     8    11    13
 -0.0428786090     2     8    12     1
 0.0042983521     2     8    12     3
 -0.0006552086     2     8    12     5
 0.0006525714     2     8    12    11
 -0.1440413876     2     8    13     1
 0.0144393816     2     8    13     3
 -0.0022010310     2     8    13     5
 0.0021921721     2     8    13    11
 -0.0002642216     2     9     1     6
 0.0002388088     2     9     1     7
 0.0003601790     2     9     1    12
 -0.0001072190     2     9     1    13
 -0.0037181236     2     9     3     6
 0.0033605140     2     9     3     7
 -0.0026856741     2     9     3    12
 0.0007994783     2     9     3    13
 -0.0009668259     2     9     5     6
 0.0008738365     2     9     5     7
 0.0050083094     2     9     5    12
 -0.0014908863     2     9     5    13
 0.1488213040     2     9     6     1
 -0.0154752899     2     9     6     3
 0.0004068206     2     9     6     5
 -0.0010834166     2     9     6    11
 -0.1345076521     2     9     7     1
 0.0139868745     2     9     7     3
 -0.0003676925     2     9     7     5
 0.0009792134     2     9     7    11
 -0.6076624738     2     9     9     2
 -0.0184971100     2     9     9     4
 0.0096326409     2     9     9    10
 0.0008761699     2     9    11     6
 -0.0007918998     2     9    11     7
 0.0026235968     2     9    11    12
 -0.0007809990     2     9    11    13
 -0.1440413876     2     9    12     1
 0.0144393816     2     9    12     3
 -0.0022010310     2     9    12     5
 0.0021921721     2     9    12    11
 0.0428786090     2     9    13     1
 -0.0042983521     2     9    13     3
 0.0006552086     2     9    13     5
 -0.0006525714     2     9    13    11
 0.0040715103     2    10     1     1
 0.0001595492     2    10     1     3
 0.0002568474     2    10     1     5
 0.0001908232     2    10     1    11
 -0.1222546073     2    10     3     1
 0.0065785450     2    10     3     3
 -0.0002961056     2    10     3     5
 -0.0013018882     2    10     3    11
 0.1066985854     2    10     4     2
 -0.0022519744     2    10     4     4
 -0.0573196719     2    10     5     1
 0.0055251855     2    10     5     3
 -0.0063665057     2    10     5     5
 -0.0018214043     2    10     5    11
 -0.0067900331     2    10     6     6
 0.0051155344     2    10     6    12
 -0.0084086996     2    10     6    13
 -0.0067900331     2    10     7     7
 -0.0084086996     2    10     7    12
 -0.0051155344     2    10     7    13
 -0.0096326409     2    10     8     8
 -0.0096326409     2    10     9     9
 -0.4608865262     2    10    10     2
 -0.0051277004     2    10    10     4
 0.0221491656     2    10    11     1
 0.0003740662     2    10    11     3
 -0.0079831656     2    10    11     5
 -0.0050629161     2    10    11    11
 0.0039578250     2    10    12     6
 -0.0065057057     2    10    12     7
 -0.0091682064     2    10    12    12
 -0.0065057057     2    10    13     6
 -0.0039578250     2    10    13     7
 -0.0091682064     2    10    13    13
 -0.0101372690     2    11     1     2
 -0.0002825733     2    11     1     4
 -0.0001908232     2    11     1    10
 -0.0820595112     2    11     3     2
 -0.0029486955     2    11     3     4
 0.0013018882     2    11     3    10
 -0.0286472774     2    11     4     1
 0.0056728243     2    11     4     3
 -0.0104304448     2    11     4     5
 -0.1606703503     2    11     5     2
 -0.0191656148     2    11     5     4
 0.0018214043     2    11     5    10
 -0.0009792134     2    11     6     8
 0.0010834166     2    11     6     9
 -0.0010834166     2    11     7     8
 -0.0009792134     2    11     7     9
 -0.0016851489     2    11     8     6
 -0.0018644743     2    11     8     7
 0.0001256897     2    11     8    12
 0.0004222272     2    11     8    13
 0.0018644743     2    11     9     6
 -0.0016851489     2    11     9     7
 0.0004222272     2    11     9    12
 -0.0001256897     2    11     9    13
 0.0219573672     2    11    10     1
 0.0016369199     2    11    10     3
 -0.0064448550     2    11    10     5
 -0.4947074721     2    11    11     2
 -0.0085989349     2    11    11     4
 0.0050629161     2    11    11    10
 -0.0006525714     2    11    12     8
 -0.0021921721     2    11    12     9
 -0.0021921721     2    11    13     8
 0.0006525714     2    11    13     9
 -0.0001072190     2    12     1     8
 -0.0003601790     2    12     1     9
 0.0007994783     2    12     3     8
 0.0026856741     2    12     3     9
 0.0029074540     2    12     4     6