&FCI NORB= 13,NELEC= 14,MS2=0,
 ORBSYM=1,1,1,1,1,1,1,1,1,1,1,1,1
 ISYM=1,
&END
 0.1934268241     1     1     2     2
 -0.0001296114     1     1     2     4
 0.0025153903     1     1     2    10
 0.5502588541     1     1     3     3
 -0.0000000002     1     1     3     4
 0.0002856846     1     1     3     5
 -0.0891305393     1     1     3    11
 -0.0001296114     1     1     4     2
 -0.0000000002     1     1     4     3
 0.5559626514     1     1     4     4
 0.0277191743     1     1     4    10
 0.0002856846     1     1     5     3
 0.5230834594     1     1     5     5
 0.0000000001     1     1     5    10
 0.1489635906     1     1     5    11
 0.5222373033     1     1     6     6
 0.0000000001     1     1     6     9
 0.0001803627     1     1     6    12
 -0.1941496510     1     1     6    13
 0.5222373033     1     1     7     7
 -0.0000000001     1     1     7     8
 -0.1941496510     1     1     7    12
 -0.0001803627     1     1     7    13
 -0.0000000001     1     1     8     7
 0.5318741993     1     1     8     8
 -0.0000000001     1     1     8    13
 0.0000000001     1     1     9     6
 0.5318741993     1     1     9     9
 -0.0000000001     1     1     9    13
 0.0025153903     1     1    10     2
 0.0277191743     1     1    10     4
 0.0000000001     1     1    10     5
 0.5533649674     1     1    10    10
 0.0000000001     1     1    10    11
 -0.0891305393     1     1    11     3
 0.1489635906     1     1    11     5
 0.0000000001     1     1    11    10
 0.5420439725     1     1    11    11
 0.0001803627     1     1    12     6
 -0.1941496510     1     1    12     7
 0.5161199335     1     1    12    12
 -0.1941496510     1     1    13     6
 -0.0001803627     1     1    13     7
 -0.0000000001     1     1    13     8
 -0.0000000001     1     1    13     9
 0.5161199335     1     1    13    13
 -0.1934268241     1     2     2     1
 -0.0000555346     1     2     2     3
 0.0023383516     1     2     2     5
 0.0020544773     1     2     2    11
 0.3594930484     1     2     3     4
 0.0268711114     1     2     3    10
 0.0001296114     1     2     4     1
 0.3595020579     1     2     4     3
 0.0587649226     1     2     4     5
 -0.0790843374     1     2     4    11
 0.0587649662     1     2     5     4
 -0.3129707164     1     2     5    10
 0.0000000002     1     2     6     6
 -0.0000000001     1     2     6     7
 -0.0718210619     1     2     6     8
 -0.3165927387     1     2     6     9
 -0.0000000001     1     2     6    13
 -0.0000000001     1     2     7     6
 -0.0000000002     1     2     7     7
 0.3165927387     1     2     7     8
 -0.0718210619     1     2     7     9
 0.0000000001     1     2     7    12
 -0.0718136807     1     2     8     6
 0.3165602022     1     2     8     7
 0.0000000001     1     2     8     8
 -0.0000000002     1     2     8     9
 -0.2043556304     1     2     8    12
 0.0461597932     1     2     8    13
 -0.3165602021     1     2     9     6
 -0.0718136807     1     2     9     7
 -0.0000000002     1     2     9     8
 -0.0000000001     1     2     9     9
 0.0461597932     1     2     9    12
 0.2043556304     1     2     9    13
 -0.0025153903     1     2    10     1
 0.0268716137     1     2    10     3
 -0.3129107921     1     2    10     5
 -0.2243305706     1     2    10    11
 -0.0791092900     1     2    11     4
 -0.2243914075     1     2    11    10
 0.0000000001     1     2    12     7
 -0.2043899207     1     2    12     8
 0.0461675387     1     2    12     9
 -0.0000000001     1     2    13     6
 0.0461675387     1     2    13     8
 0.2043899207     1     2    13     9
 0.0000555346     1     3     2     2
 0.0000000156     1     3     2     4
 -0.0000016763     1     3     2    10
 -0.5502588541     1     3     3     1
 0.0014940958     1     3     3     5
 0.0019848605     1     3     3    11
 0.0000000002     1     3     4     1
 -0.3595020579     1     3     4     2
 -0.0001680186     1     3     4     4
 0.0020792880     1     3     4    10
 -0.0002856846     1     3     5     1
 -0.0177715607     1     3     5     5
 -0.0194221707     1     3     5    11
 -0.0182368701     1     3     6     6
 -0.0000209012     1     3     6    12
 0.0224988737     1     3     6    13
 -0.0182368701     1     3     7     7
 0.0224988737     1     3     7    12
 0.0000209012     1     3     7    13
 -0.0182927699     1     3     8     8
 -0.0182927699     1     3     9     9
 -0.0268716137     1     3    10     2
 0.0012099041     1     3    10     4
 -0.0191784758     1     3    10    10
 0.0891305393     1     3    11     1
 -0.0129635632     1     3    11     5
 -0.0149650072     1     3    11    11
 -0.0000137552     1     3    12     6
 0.0148066337     1     3    12     7
 -0.0194733394     1     3    12    12
 0.0148066337     1     3    13     6
 0.0000137552     1     3    13     7
 -0.0194733394     1     3    13    13
 0.0001296114     1     4     2     1
 -0.0000000156     1     4     2     3
 -0.0000021471     1     4     2     5
 0.0000157840     1     4     2    11
 0.0000000002     1     4     3     1
 -0.3594930484     1     4     3     2
 0.0008353226     1     4     3    10
 -0.5559626514     1     4     4     1
 0.0001680186     1     4     4     3
 -0.0001296127     1     4     4     5
 -0.0005811848     1     4     4    11
 -0.0587649662     1     4     5     2
 0.0183711843     1     4     5    10
 0.0040590843     1     4     6     8
 0.0178927544     1     4     6     9
 -0.0178927544     1     4     7     8
 0.0040590843     1     4     7     9
 0.0039223370     1     4     8     6
 -0.0172899617     1     4     8     7
 0.0221626213     1     4     8    12
 -0.0050060867     1     4     8    13
 0.0172899617     1     4     9     6
 0.0039223370     1     4     9     7
 -0.0050060867     1     4     9    12
 -0.0221626213     1     4     9    13
 -0.0277191743     1     4    10     1
 -0.0012099041     1     4    10     3
 0.0175454017     1     4    10     5
 0.0206356360     1     4    10    11
 0.0791092900     1     4    11     2
 0.0149755601     1     4    11    10
 0.0156338223     1     4    12     8
 -0.0035313635     1     4    12     9
 -0.0035313635     1     4    13     8
 -0.0156338223     1     4    13     9
 -0.0023383516     1     5     2     2
 0.0000021471     1     5     2     4
 -0.0000610277     1     5     2    10
 -0.0002856846     1     5     3     1
 -0.0014940958     1     5     3     3
 -0.0062595615     1     5     3    11
 -0.0587649226     1     5     4     2
 0.0001296127     1     5     4     4
 0.0005504168     1     5     4    10
 -0.5230834594     1     5     5     1
 0.0177715607     1     5     5     3
 -0.0045502771     1     5     5    11
 -0.0024082158     1     5     6     6
 -0.0000015073     1     5     6    12
 0.0016225123     1     5     6    13
 -0.0024082158     1     5     7     7
 0.0016225123     1     5     7    12
 0.0000015073     1     5     7    13
 -0.0025158113     1     5     8     8
 -0.0025158113     1     5     9     9
 -0.0000000001     1     5    10     1
 0.3129107921     1     5    10     2
 -0.0175454017     1     5    10     4
 -0.0053533967     1     5    10    10
 -0.1489635906     1     5    11     1
 0.0129635632     1     5    11     3
 -0.0123014173     1     5    11    11
 -0.0000017081     1     5    12     6
 0.0018385964     1     5    12     7
 -0.0034725614     1     5    12    12
 0.0018385964     1     5    13     6
 0.0000017081     1     5    13     7
 -0.0034725614     1     5    13    13
 -0.0000070110     1     6     2     8
 -0.0000309051     1     6     2     9
 -0.0000070177     1     6     3    12
 0.0075541720     1     6     3    13
 0.0000866811     1     6     4     8
 0.0003820969     1     6     4     9
 0.0000002431     1     6     5    12
 -0.0002617548     1     6     5    13
 -0.5222373033     1     6     6     1
 -0.0000000002     1     6     6     2
 0.0182368701     1     6     6     3
 0.0024082158     1     6     6     5
 -0.0049103807     1     6     6    11
 0.0000000001     1     6     7     2
 0.0718136807     1     6     8     2
 -0.0039223370     1     6     8     4
 -0.0006607504     1     6     8    10
 -0.0000000001     1     6     9     1
 0.3165602021     1     6     9     2
 -0.0172899617     1     6     9     4
 -0.0029126383     1     6     9    10
 -0.0000077552     1     6    10     8
 -0.0000341856     1     6    10     9
 -0.0000010417     1     6    11    12
 0.0011213419     1     6    11    13
 -0.0001803627     1     6    12     1
 0.0000137552     1     6    12     3
 0.0000017081     1     6    12     5
 -0.0000083650     1     6    12    11
 0.1941496510     1     6    13     1
 0.0000000001     1     6    13     2
 -0.0148066337     1     6    13     3
 -0.0018385964     1     6    13     5
 0.0090044943     1     6    13    11
 0.0000309051     1     7     2     8
 -0.0000070110     1     7     2     9
 0.0075541720     1     7     3    12
 0.0000070177     1     7     3    13
 -0.0003820969     1     7     4     8
 0.0000866811     1     7     4     9
 -0.0002617548     1     7     5    12
 -0.0000002431     1     7     5    13
 0.0000000001     1     7     6     2
 -0.5222373033     1     7     7     1
 0.0000000002     1     7     7     2
 0.0182368701     1     7     7     3
 0.0024082158     1     7     7     5
 -0.0049103807     1     7     7    11
 0.0000000001     1     7     8     1
 -0.3165602022     1     7     8     2
 0.0172899617     1     7     8     4
 0.0029126383     1     7     8    10
 0.0718136807     1     7     9     2
 -0.0039223370     1     7     9     4
 -0.0006607504     1     7     9    10
 0.0000341856     1     7    10     8
 -0.0000077552     1     7    10     9
 0.0011213419     1     7    11    12
 0.0000010417     1     7    11    13
 0.1941496510     1     7    12     1
 -0.0000000001     1     7    12     2
 -0.0148066337     1     7    12     3
 -0.0018385964     1     7    12     5
 0.0090044943     1     7    12    11
 0.0001803627     1     7    13     1
 -0.0000137552     1     7    13     3
 -0.0000017081     1     7    13     5
 0.0000083650     1     7    13    11
 0.0000070110     1     8     2     6
 -0.0000309051     1     8     2     7
 0.0000342989     1     8     2    12
 -0.0000077474     1     8     2    13
 -0.0000866811     1     8     4     6
 0.0003820969     1     8     4     7
 0.0063643905     1     8     4    12
 -0.0014375868     1     8     4    13
 0.0718210619     1     8     6     2
 -0.0040590843     1     8     6     4
 -0.0006973741     1     8     6    10
 0.0000000001     1     8     7     1
 -0.3165927387     1     8     7     2
 0.0178927544     1     8     7     4
 0.0030740781     1     8     7    10
 -0.5318741993     1     8     8     1
 -0.0000000001     1     8     8     2
 0.0182927699     1     8     8     3
 0.0025158113     1     8     8     5
 -0.0057738109     1     8     8    11
 0.0000000002     1     8     9     2
 0.0000077552     1     8    10     6
 -0.0000341856     1     8    10     7
 0.0006441944     1     8    10    12
 -0.0001455104     1     8    10    13
 0.2043899207     1     8    12     2
 -0.0156338223     1     8    12     4
 -0.0019454836     1     8    12    10
 0.0000000001     1     8    13     1
 -0.0461675387     1     8    13     2
 0.0035313635     1     8    13     4
 0.0004394453     1     8    13    10
 0.0000309051     1     9     2     6
 0.0000070110     1     9     2     7
 -0.0000077474     1     9     2    12
 -0.0000342989     1     9     2    13
 -0.0003820969     1     9     4     6
 -0.0000866811     1     9     4     7
 -0.0014375868     1     9     4    12
 -0.0063643905     1     9     4    13
 -0.0000000001     1     9     6     1
 0.3165927387     1     9     6     2
 -0.0178927544     1     9     6     4
 -0.0030740781     1     9     6    10
 0.0718210619     1     9     7     2
 -0.0040590843     1     9     7     4
 -0.0006973741     1     9     7    10
 0.0000000002     1     9     8     2
 -0.5318741993     1     9     9     1
 0.0000000001     1     9     9     2
 0.0182927699     1     9     9     3
 0.0025158113     1     9     9     5
 -0.0057738109     1     9     9    11
 0.0000341856     1     9    10     6
 0.0000077552     1     9    10     7
 -0.0001455104     1     9    10    12
 -0.0006441944     1     9    10    13
 -0.0461675387     1     9    12     2
 0.0035313635     1     9    12     4
 0.0004394453     1     9    12    10
 0.0000000001     1     9    13     1
 -0.2043899207     1     9    13     2
 0.0156338223     1     9    13     4
 0.0019454836     1     9    13    10
 -0.0025153903     1    10     2     1
 0.0000016763     1    10     2     3
 0.0000610277     1    10     2     5
 0.0000612141     1    10     2    11
 -0.0268711114     1    10     3     2
 -0.0008353226     1    10     3     4
 -0.0277191743     1    10     4     1
 -0.0020792880     1    10     4     3
 -0.0005504168     1    10     4     5
 0.0054407642     1    10     4    11
 -0.0000000001     1    10     5     1
 0.3129707164     1    10     5     2
 -0.0183711843     1    10     5     4
 0.0006973741     1    10     6     8
 0.0030740781     1    10     6     9
 -0.0030740781     1    10     7     8
 0.0006973741     1    10     7     9
 0.0006607504     1    10     8     6
 -0.0029126383     1    10     8     7
 0.0026032227     1    10     8    12
 -0.0005880152     1    10     8    13
 0.0029126383     1    10     9     6
 0.0006607504     1    10     9     7
 -0.0005880152     1    10     9    12
 -0.0026032227     1    10     9    13
 -0.5533649674     1    10    10     1
 0.0191784758     1    10    10     3
 0.0053533967     1    10    10     5
 -0.0030897709     1    10    10    11
 -0.0000000001     1    10    11     1
 0.2243914075     1    10    11     2
 -0.0149755601     1    10    11     4
 0.0019454836     1    10    12     8
 -0.0004394453     1    10    12     9
 -0.0004394453     1    10    13     8
 -0.0019454836     1    10    13     9
 -0.0020544773     1    11     2     2
 -0.0000157840     1    11     2     4
 -0.0000612141     1    11     2    10
 0.0891305393     1    11     3     1
 -0.0019848605     1    11     3     3
 0.0062595615     1    11     3     5
 0.0790843374     1    11     4     2
 0.0005811848     1    11     4     4
 -0.0054407642     1    11     4    10
 -0.1489635906     1    11     5     1
 0.0194221707     1    11     5     3
 0.0045502771     1    11     5     5
 0.0049103807     1    11     6     6
 0.0000073790     1    11     6    12
 -0.0079429716     1    11     6    13
 0.0049103807     1    11     7     7
 -0.0079429716     1    11     7    12
 -0.0000073790     1    11     7    13
 0.0057738109     1    11     8     8
 0.0057738109     1    11     9     9
 -0.0000000001     1    11    10     1
 0.2243305706     1    11    10     2
 -0.0206356360     1    11    10     4
 0.0030897709     1    11    10    10
 -0.5420439725     1    11    11     1
 0.0149650072     1    11    11     3
 0.0123014173     1    11    11     5
 0.0000083650     1    11    12     6
 -0.0090044943     1    11    12     7
 0.0103509829     1    11    12    12
 -0.0090044943     1    11    13     6
 -0.0000083650     1    11    13     7
 0.0103509829     1    11    13    13
 -0.0000342989     1    12     2     8
 0.0000077474     1    12     2     9
 0.0000070177     1    12     3     6
 -0.0075541720     1    12     3     7
 -0.0063643905     1    12     4     8
 0.0014375868     1    12     4     9
 -0.0000002431     1    12     5     6
 0.0002617548     1    12     5     7
 -0.0001803627     1    12     6     1
 0.0000209012     1    12     6     3
 0.0000015073     1    12     6     5
 -0.0000073790     1    12     6    11
 0.1941496510     1    12     7     1
 -0.0000000001     1    12     7     2
 -0.0224988737     1    12     7     3
 -0.0016225123     1    12     7     5
 0.0079429716     1    12     7    11
 0.2043556304     1    12     8     2
 -0.0221626213     1    12     8     4
 -0.0026032227     1    12     8    10
 -0.0461597932     1    12     9     2
 0.0050060867     1    12     9     4
 0.0005880152     1    12     9    10
 -0.0006441944     1    12    10     8
 0.0001455104     1    12    10     9
 0.0000010417     1    12    11     6
 -0.0011213419     1    12    11     7
 -0.5161199335     1    12    12     1
 0.0194733394     1    12    12     3
 0.0034725614     1    12    12     5
 -0.0103509829     1    12    12    11
 0.0000077474     1    13     2     8
 0.0000342989     1    13     2     9
 -0.0075541720     1    13     3     6
 -0.0000070177     1    13     3     7
 0.0014375868     1    13     4     8
 0.0063643905     1    13     4     9
 0.0002617548     1    13     5     6
 0.0000002431     1    13     5     7
 0.1941496510     1    13     6     1
 0.0000000001     1    13     6     2
 -0.0224988737     1    13     6     3
 -0.0016225123     1    13     6     5
 0.0079429716     1    13     6    11
 0.0001803627     1    13     7     1
 -0.0000209012     1    13     7     3
 -0.0000015073     1    13     7     5
 0.0000073790     1    13     7    11
 0.0000000001     1    13     8     1
 -0.0461597932     1    13     8     2
 0.0050060867     1    13     8     4
 0.0005880152     1    13     8    10
 0.0000000001     1    13     9     1
 -0.2043556304     1    13     9     2
 0.0221626213     1    13     9     4
 0.0026032227     1    13     9    10
 0.0001455104     1    13    10     8
 0.0006441944     1    13    10     9
 -0.0011213419     1    13    11     6
 -0.0000010417     1    13    11     7
 -0.5161199335     1    13    13     1
 0.0194733394     1    13    13     3
 0.0034725614     1    13    13     5
 -0.0103509829     1    13    13    11
 -0.1934268241     2     1     1     2
 0.0001296114     2     1     1     4
 -0.0025153903     2     1     1    10
 -0.0000555346     2     1     3     2
 0.3595020579     2     1     3     4
 0.0268716137     2     1     3    10
 0.3594930484     2     1     4     3
 0.0587649662     2     1     4     5
 -0.0791092900     2     1     4    11
 0.0023383516     2     1     5     2
 0.0587649226     2     1     5     4
 -0.3129107921     2     1     5    10
 0.0000000002     2     1     6     6
 -0.0000000001     2     1     6     7
 -0.0718136807     2     1     6     8
 -0.3165602021     2     1     6     9
 -0.0000000001     2     1     6    13
 -0.0000000001     2     1     7     6
 -0.0000000002     2     1     7     7
 0.3165602022     2     1     7     8
 -0.0718136807     2     1     7     9
 0.0000000001     2     1     7    12
 -0.0718210619     2     1     8     6
 0.3165927387     2     1     8     7
 0.0000000001     2     1     8     8
 -0.0000000002     2     1     8     9
 -0.2043899207     2     1     8    12
 0.0461675387     2     1     8    13
 -0.3165927387     2     1     9     6
 -0.0718210619     2     1     9     7
 -0.0000000002     2     1     9     8
 -0.0000000001     2     1     9     9
 0.0461675387     2     1     9    12
 0.2043899207     2     1     9    13
 0.0268711114     2     1    10     3
 -0.3129707164     2     1    10     5
 -0.2243914075     2     1    10    11
 0.0020544773     2     1    11     2
 -0.0790843374     2     1    11     4
 -0.2243305706     2     1    11    10
 0.0000000001     2     1    12     7
 -0.2043556304     2     1    12     8
 0.0461597932     2     1    12     9
 -0.0000000001     2     1    13     6
 0.0461597932     2     1    13     8
 0.2043556304     2     1    13     9
 0.1934268241     2     2     1     1
 0.0000555346     2     2     1     3
 -0.0023383516     2     2     1     5
 -0.0020544773     2     2     1    11
 0.0000555346     2     2     3     1
 0.5502683451     2     2     3     3
 0.0000000002     2     2     3     4
 0.0002790484     2     2     3     5
 -0.0891608069     2     2     3    11
 0.0000000002     2     2     4     3
 0.5559526101     2     2     4     4
 0.0277330871     2     2     4    10
 -0.0023383516     2     2     5     1
 0.0002790484     2     2     5     3
 0.5231387835     2     2     5     5
 -0.0000000001     2     2     5    10
 0.1490190595     2     2     5    11
 0.5222634038     2     2     6     6
 -0.0000000001     2     2     6     9
 0.0001803904     2     2     6    12
 -0.1941795116     2     2     6    13
 0.5222634038     2     2     7     7
 0.0000000001     2     2     7     8
 -0.1941795116     2     2     7    12
 -0.0001803904     2     2     7    13
 0.0000000001     2     2     8     7
 0.5318446552     2     2     8     8
 -0.0000000001     2     2     8    12
 -0.0000000001     2     2     9     6
 0.5318446552     2     2     9     9
 0.0000000001     2     2     9    12
 0.0277330871     2     2    10     4
 -0.0000000001     2     2    10     5
 0.5533051060     2     2    10    10
 -0.0000000001     2     2    10    11
 -0.0020544773     2     2    11     1
 -0.0891608069     2     2    11     3
 0.1490190595     2     2    11     5
 -0.0000000001     2     2    11    10
 0.5421126332     2     2    11    11
 0.0001803904     2     2    12     6
 -0.1941795116     2     2    12     7
 -0.0000000001     2     2    12     8
 0.0000000001     2     2    12     9
 0.5161552850     2     2    12    12
 -0.1941795116     2     2    13     6
 -0.0001803904     2     2    13     7
 0.5161552850     2     2    13    13
 -0.0000555346     2     3     1     2
 -0.0000000156     2     3     1     4
 0.0000016763     2     3     1    10
 -0.5502683451     2     3     3     2
 0.0000220901     2     3     3     4
 -0.0018395208     2     3     3    10
 -0.3594930484     2     3     4     1
 -0.0000000002     2     3     4     2
 -0.0022926082     2     3     4     5
 -0.0021894330     2     3     4    11
 -0.0002790484     2     3     5     2
 -0.0013834860     2     3     5     4
 0.0188777491     2     3     5    10
 0.0040991558     2     3     6     8
 0.0180693926     2     3     6     9
 -0.0180693926     2     3     7     8
 0.0040991558     2     3     7     9
 0.0038319011     2     3     8     6
 -0.0168913136     2     3     8     7
 0.0214835497     2     3     8    12
 -0.0048526982     2     3     8    13
 0.0168913136     2     3     9     6
 0.0038319011     2     3     9     7
 -0.0048526982     2     3     9    12
 -0.0214835497     2     3     9    13
 -0.0268711114     2     3    10     1
 0.0169131762     2     3    10     5
 0.0193511428     2     3    10    11
 0.0891608069     2     3    11     2
 -0.0014314555     2     3    11     4
 0.0142870539     2     3    11    10
 0.0151652651     2     3    12     8
 -0.0034255259     2     3    12     9
 -0.0034255259     2     3    13     8
 -0.0151652651     2     3    13     9
 -0.0001296114     2     4     1     1
 0.0000000156     2     4     1     3
 0.0000021471     2     4     1     5
 -0.0000157840     2     4     1    11
 -0.3595020579     2     4     3     1
 -0.0000000002     2     4     3     2
 -0.0000220901     2     4     3     3
 -0.0009095128     2     4     3     5
 -0.0008434501     2     4     3    11
 -0.5559526101     2     4     4     2
 -0.0001643089     2     4     4    10
 -0.0587649226     2     4     5     1
 0.0013834860     2     4     5     3
 -0.0173390928     2     4     5     5
 -0.0193098309     2     4     5    11
 -0.0182355680     2     4     6     6
 -0.0000208600     2     4     6    12
 0.0224545564     2     4     6    13
 -0.0182355680     2     4     7     7
 0.0224545564     2     4     7    12
 0.0000208600     2     4     7    13
 -0.0189618307     2     4     8     8
 -0.0189618307     2     4     9     9
 -0.0277330871     2     4    10     2
 -0.0202656635     2     4    10    10
 0.0790843374     2     4    11     1
 0.0014314555     2     4    11     3
 -0.0132354404     2     4    11     5
 -0.0163856513     2     4    11    11
 -0.0000141254     2     4    12     6
 0.0152051630     2     4    12     7
 -0.0201655683     2     4    12    12
 0.0152051630     2     4    13     6
 0.0000141254     2     4    13     7
 -0.0201655683     2     4    13    13
 0.0023383516     2     5     1     2
 -0.0000021471     2     5     1     4
 0.0000610277     2     5     1    10
 -0.0002790484     2     5     3     2
 0.0009095128     2     5     3     4
 0.0017480583     2     5     3    10
 -0.0587649662     2     5     4     1
 0.0022926082     2     5     4     3
 -0.0058252909     2     5     4    11
 -0.5231387835     2     5     5     2
 0.0173390928     2     5     5     4
 -0.0001654936     2     5     5    10
 -0.0000054061     2     5     6     8
 -0.0000238309     2     5     6     9
 0.0000238309     2     5     7     8
 -0.0000054061     2     5     7     9
 0.0000287602     2     5     8     6
 -0.0001267773     2     5     8     7
 0.0015544177     2     5     8    12
 -0.0003511115     2     5     8    13
 0.0001267773     2     5     9     6
 0.0000287602     2     5     9     7
 -0.0003511115     2     5     9    12
 -0.0015544177     2     5     9    13
 0.3129707164     2     5    10     1
 0.0000000001     2     5    10     2
 -0.0169131762     2     5    10     3
 0.0079370725     2     5    10    11
 -0.1490190595     2     5    11     2
 0.0132354404     2     5    11     4
 0.0035475404     2     5    11    10
 0.0016016289     2     5    12     8
 -0.0003617755     2     5    12     9
 -0.0003617755     2     5    13     8
 -0.0016016289     2     5    13     9
 0.0000070110     2     6     1     8
 0.0000309051     2     6     1     9
 0.0002370543     2     6     3     8
 0.0010449531     2     6     3     9
 -0.0000065292     2     6     4    12
 0.0070283333     2     6     4    13
 -0.0000279321     2     6     5     8
 -0.0001231264     2     6     5     9
 -0.0000000002     2     6     6     1
 -0.5222634038     2     6     6     2
 0.0182355680     2     6     6     4
 0.0005371364     2     6     6    10
 0.0000000001     2     6     7     1
 0.0718210619     2     6     8     1
 -0.0038319011     2     6     8     3
 -0.0000287602     2     6     8     5
 0.0016580577     2     6     8    11
 0.3165927387     2     6     9     1
 0.0000000001     2     6     9     2
 -0.0168913136     2     6     9     3
 -0.0001267773     2     6     9     5
 0.0073088457     2     6     9    11
 -0.0000005816     2     6    10    12
 0.0006259717     2     6    10    13
 0.0000720382     2     6    11     8
 0.0003175499     2     6    11     9
 -0.0001803904     2     6    12     2
 0.0000141254     2     6    12     4
 0.0000016367     2     6    12    10
 0.0000000001     2     6    13     1
 0.1941795116     2     6    13     2
 -0.0152051630     2     6    13     4
 -0.0017617355     2     6    13    10
 -0.0000309051     2     7     1     8
 0.0000070110     2     7     1     9
 -0.0010449531     2     7     3     8
 0.0002370543     2     7     3     9
 0.0070283333     2     7     4    12
 0.0000065292     2     7     4    13
 0.0001231264     2     7     5     8
 -0.0000279321     2     7     5     9
 0.0000000001     2     7     6     1
 0.0000000002     2     7     7     1
 -0.5222634038     2     7     7     2
 0.0182355680     2     7     7     4
 0.0005371364     2     7     7    10
 -0.3165927387     2     7     8     1
 -0.0000000001     2     7     8     2
 0.0168913136     2     7     8     3
 0.0001267773     2     7     8     5
 -0.0073088457     2     7     8    11
 0.0718210619     2     7     9     1
 -0.0038319011     2     7     9     3
 -0.0000287602     2     7     9     5
 0.0016580577     2     7     9    11
 0.0006259717     2     7    10    12
 0.0000005816     2     7    10    13
 -0.0003175499     2     7    11     8
 0.0000720382     2     7    11     9
 -0.0000000001     2     7    12     1
 0.1941795116     2     7    12     2
 -0.0152051630     2     7    12     4
 -0.0017617355     2     7    12    10
 0.0001803904     2     7    13     2
 -0.0000141254     2     7    13     4
 -0.0000016367     2     7    13    10
 -0.0000070110     2     8     1     6
 0.0000309051     2     8     1     7
 -0.0000342989     2     8     1    12
 0.0000077474     2     8     1    13
 -0.0002370543     2     8     3     6
 0.0010449531     2     8     3     7
 0.0061687272     2     8     3    12
 -0.0013933904     2     8     3    13
 0.0000279321     2     8     5     6
 -0.0001231264     2     8     5     7
 -0.0001041147     2     8     5    12
 0.0000235174     2     8     5    13
 0.0718136807     2     8     6     1
 -0.0040991558     2     8     6     3
 0.0000054061     2     8     6     5
 0.0016650564     2     8     6    11
 -0.3165602022     2     8     7     1
 -0.0000000001     2     8     7     2
 0.0180693926     2     8     7     3
 -0.0000238309     2     8     7     5
 -0.0073396961     2     8     7    11
 -0.0000000001     2     8     8     1
 -0.5318446552     2     8     8     2
 0.0189618307     2     8     8     4
 0.0009220365     2     8     8    10
 0.0000000002     2     8     9     1
 -0.0000720382     2     8    11     6
 0.0003175499     2     8    11     7
 0.0007042661     2     8    11    12
 -0.0001590794     2     8    11    13
 0.2043556304     2     8    12     1
 0.0000000001     2     8    12     2
 -0.0151652651     2     8    12     3
 -0.0016016289     2     8    12     5
 0.0091629057     2     8    12    11
 -0.0461597932     2     8    13     1
 0.0034255259     2     8    13     3
 0.0003617755     2     8    13     5
 -0.0020697145     2     8    13    11
 -0.0000309051     2     9     1     6
 -0.0000070110     2     9     1     7
 0.0000077474     2     9     1    12
 0.0000342989     2     9     1    13
 -0.0010449531     2     9     3     6
 -0.0002370543     2     9     3     7
 -0.0013933904     2     9     3    12
 -0.0061687272     2     9     3    13
 0.0001231264     2     9     5     6
 0.0000279321     2     9     5     7
 0.0000235174     2     9     5    12
 0.0001041147     2     9     5    13
 0.3165602021     2     9     6     1
 0.0000000001     2     9     6     2
 -0.0180693926     2     9     6     3