&FCI NORB= 10,NELEC= 12,MS2=0,
 ORBSYM=1,1,1,1,1,1,1,1,1,1
 ISYM=1,
&END
 0.2698203405     1     1     2     2
 0.0000000016     1     1     2     7
 -0.0147410714     1     1     2     8
 0.2254891754     1     1     3     3
 0.0000000122     1     1     3     4
 0.0000000044     1     1     3     9
 0.0000000122     1     1     4     3
 0.2301199130     1     1     4     4
 0.0016911391     1     1     4     9
 0.2532088376     1     1     5     5
 0.0000000013     1     1     5     6
 0.0000000013     1     1     6     5
 0.2802017459     1     1     6     6
 0.0000000016     1     1     7     2
 0.2679196433     1     1     7     7
 0.0000000017     1     1     7     8
 -0.0147410714     1     1     8     2
 0.0000000017     1     1     8     7
 0.2481388623     1     1     8     8
 0.0000000044     1     1     9     3
 0.0016911391     1     1     9     4
 0.1879648028     1     1     9     9
 0.1692594965     1     1    10    10
 -0.2698203405     1     2     2     1
 0.0000000062     1     2     2    10
 -0.0004768687     1     2     3     5
 -0.0000000013     1     2     3     6
 0.0000000013     1     2     4     5
 -0.0004766427     1     2     4     6
 0.0426788169     1     2     5     3
 -0.0000001108     1     2     5     4
 -0.0000000001     1     2     5     9
 0.0000001108     1     2     6     3
 0.0426786806     1     2     6     4
 -0.0018508754     1     2     6     9
 -0.0000000016     1     2     7     1
 -0.0030762323     1     2     7    10
 0.0147410714     1     2     8     1
 -0.0000000010     1     2     8    10
 -0.0000000001     1     2     9     5
 -0.0006715353     1     2     9     6
 -0.0002613594     1     2    10     7
 -0.0000000001     1     2    10     8
 -0.0431442112     1     3     2     5
 -0.0000001121     1     3     2     6
 -0.2254891754     1     3     3     1
 0.0000000114     1     3     3    10
 -0.0000000122     1     3     4     1
 0.0003263455     1     3     4    10
 -0.0426788169     1     3     5     2
 -0.0000000700     1     3     5     7
 -0.0173956145     1     3     5     8
 -0.0000001108     1     3     6     2
 -0.0358998274     1     3     6     7
 0.0000000679     1     3     6     8
 -0.0000000688     1     3     7     5
 -0.0348003159     1     3     7     6
 -0.0169348406     1     3     8     5
 0.0000000649     1     3     8     6
 -0.0000000044     1     3     9     1
 -0.0291769919     1     3     9    10
 -0.0018225444     1     3    10     4
 -0.0282261140     1     3    10     9
 0.0000001121     1     4     2     5
 -0.0431418748     1     4     2     6
 -0.0000000122     1     4     3     1
 0.0021427754     1     4     3    10
 -0.2301199130     1     4     4     1
 -0.0000000011     1     4     4    10
 0.0000001108     1     4     5     2
 -0.0265737992     1     4     5     7
 0.0000000446     1     4     5     8
 -0.0426786806     1     4     6     2
 0.0000000932     1     4     6     7
 0.0267457284     1     4     6     8
 -0.0261558473     1     4     7     5
 0.0000000904     1     4     7     6
 0.0000000434     1     4     8     5
 0.0255764290     1     4     8     6
 -0.0016911391     1     4     9     1
 0.0000000836     1     4     9    10
 0.0018225444     1     4    10     3
 0.0000000808     1     4    10     9
 0.0431442112     1     5     2     3
 -0.0000001121     1     5     2     4
 0.0004768687     1     5     3     2
 -0.0000000003     1     5     3     7
 -0.0002512873     1     5     3     8
 -0.0000000013     1     5     4     2
 -0.0001071090     1     5     4     7
 0.0000000007     1     5     4     8
 -0.2532088376     1     5     5     1
 0.0000000053     1     5     5    10
 -0.0000000013     1     5     6     1
 -0.0024988618     1     5     6    10
 0.0000000688     1     5     7     3
 0.0261558473     1     5     7     4
 -0.0006443334     1     5     7     9
 0.0169348406     1     5     8     3
 -0.0000000434     1     5     8     4
 0.0000000001     1     5     9     2
 -0.0002766047     1     5     9     7
 -0.0003699598     1     5    10     6
 0.0000001121     1     6     2     3
 0.0431418748     1     6     2     4
 -0.0013034488     1     6     2     9
 0.0000000013     1     6     3     2
 -0.0006236938     1     6     3     7
 0.0000000020     1     6     3     8
 0.0004766427     1     6     4     2
 0.0000000016     1     6     4     7
 0.0007801633     1     6     4     8
 -0.0000000013     1     6     5     1
 -0.0019239067     1     6     5    10
 -0.2802017459     1     6     6     1
 0.0000000067     1     6     6    10
 0.0348003159     1     6     7     3
 -0.0000000904     1     6     7     4
 -0.0000000649     1     6     8     3
 -0.0255764290     1     6     8     4
 0.0006500423     1     6     8     9
 0.0006715353     1     6     9     2
 0.0002744517     1     6     9     8
 0.0003699598     1     6    10     5
 -0.0000000016     1     7     2     1
 -0.0018948847     1     7     2    10
 0.0000000003     1     7     3     5
 0.0006236938     1     7     3     6
 0.0001071090     1     7     4     5
 -0.0000000016     1     7     4     6
 0.0000000700     1     7     5     3
 0.0265737992     1     7     5     4
 0.0003584584     1     7     5     9
 0.0358998274     1     7     6     3
 -0.0000000932     1     7     6     4
 -0.2679196433     1     7     7     1
 0.0000000053     1     7     7    10
 -0.0000000017     1     7     8     1
 0.0015430660     1     7     8    10
 0.0002766047     1     7     9     5
 0.0002613594     1     7    10     2
 -0.0000385553     1     7    10     8
 0.0147410714     1     8     2     1
 -0.0000000006     1     8     2    10
 0.0002512873     1     8     3     5
 -0.0000000020     1     8     3     6
 -0.0000000007     1     8     4     5
 -0.0007801633     1     8     4     6
 0.0173956145     1     8     5     3
 -0.0000000446     1     8     5     4
 0.0000000001     1     8     5     9
 -0.0000000679     1     8     6     3
 -0.0267457284     1     8     6     4
 -0.0003257867     1     8     6     9
 -0.0000000017     1     8     7     1
 0.0017172014     1     8     7    10
 -0.2481388623     1     8     8     1
 0.0000000052     1     8     8    10
 -0.0002744517     1     8     9     6
 0.0000000001     1     8    10     2
 0.0000385553     1     8    10     7
 0.0013034488     1     9     2     6
 -0.0000000044     1     9     3     1
 -0.0009487812     1     9     3    10
 -0.0016911391     1     9     4     1
 0.0000000028     1     9     4    10
 0.0000000001     1     9     5     2
 -0.0003584584     1     9     5     7
 -0.0000000001     1     9     5     8
 0.0018508754     1     9     6     2
 0.0003257867     1     9     6     8
 0.0006443334     1     9     7     5
 -0.0006500423     1     9     8     6
 -0.1879648028     1     9     9     1
 0.0000000035     1     9     9    10
 0.0282261140     1     9    10     3
 -0.0000000808     1     9    10     4
 -0.0000000062     1    10     2     2
 0.0018948847     1    10     2     7
 0.0000000006     1    10     2     8
 -0.0000000114     1    10     3     3
 -0.0021427754     1    10     3     4
 0.0009487812     1    10     3     9
 -0.0003263455     1    10     4     3
 0.0000000011     1    10     4     4
 -0.0000000028     1    10     4     9
 -0.0000000053     1    10     5     5
 0.0019239067     1    10     5     6
 0.0024988618     1    10     6     5
 -0.0000000067     1    10     6     6
 0.0030762323     1    10     7     2
 -0.0000000053     1    10     7     7
 -0.0017172014     1    10     7     8
 0.0000000010     1    10     8     2
 -0.0015430660     1    10     8     7
 -0.0000000052     1    10     8     8
 0.0291769919     1    10     9     3
 -0.0000000836     1    10     9     4
 -0.0000000035     1    10     9     9
 -0.1692594965     1    10    10     1
 -0.2698203405     2     1     1     2
 -0.0000000016     2     1     1     7
 0.0147410714     2     1     1     8
 0.0426788169     2     1     3     5
 0.0000001108     2     1     3     6
 -0.0000001108     2     1     4     5
 0.0426786806     2     1     4     6
 -0.0004768687     2     1     5     3
 0.0000000013     2     1     5     4
 -0.0000000001     2     1     5     9
 -0.0000000013     2     1     6     3
 -0.0004766427     2     1     6     4
 -0.0006715353     2     1     6     9
 -0.0002613594     2     1     7    10
 -0.0000000001     2     1     8    10
 -0.0000000001     2     1     9     5
 -0.0018508754     2     1     9     6
 0.0000000062     2     1    10     2
 -0.0030762323     2     1    10     7
 -0.0000000010     2     1    10     8
 0.2698203405     2     2     1     1
 -0.0000000062     2     2     1    10
 0.2693361818     2     2     3     3
 0.2693361658     2     2     4     4
 -0.0000006724     2     2     4     9
 0.2140812145     2     2     5     5
 0.2140811829     2     2     6     6
 0.2512637218     2     2     7     7
 0.2512867944     2     2     8     8
 -0.0000006724     2     2     9     4
 0.1878363071     2     2     9     9
 -0.0000000062     2     2    10     1
 0.1765773458     2     2    10    10
 0.0431442112     2     3     1     5
 0.0000001121     2     3     1     6
 -0.2693361818     2     3     3     2
 -0.0000000128     2     3     3     7
 0.0023898743     2     3     3     8
 -0.0023885156     2     3     4     7
 -0.0000000128     2     3     4     8
 0.0004768687     2     3     5     1
 -0.0000000003     2     3     5    10
 0.0000000013     2     3     6     1
 0.0001320795     2     3     6    10
 0.0000011514     2     3     7     4
 0.0005937916     2     3     7     9
 -0.0000000015     2     3     8     9
 -0.0011970006     2     3     9     7
 0.0000000031     2     3     9     8
 -0.0000000090     2     3    10     5
 0.0031887942     2     3    10     6
 -0.0000001121     2     4     1     5
 0.0431418748     2     4     1     6
 -0.0023961345     2     4     3     7
 -0.0000000128     2     4     3     8
 -0.2693361658     2     4     4     2
 0.0000000129     2     4     4     7
 -0.0023861938     2     4     4     8
 -0.0000000013     2     4     5     1
 -0.0001243556     2     4     5    10
 0.0004766427     2     4     6     1
 -0.0000000004     2     4     6    10
 -0.0000011514     2     4     7     3
 -0.0000000015     2     4     7     9
 -0.0005938396     2     4     8     9
 0.0000006724     2     4     9     2
 0.0000000031     2     4     9     7
 0.0012045997     2     4     9     8
 -0.0032273785     2     4    10     5
 -0.0000000090     2     4    10     6
 -0.0431442112     2     5     1     3
 0.0000001121     2     5     1     4
 -0.0426788169     2     5     3     1
 0.0000000086     2     5     3    10
 0.0000001108     2     5     4     1
 0.0030853306     2     5     4    10
 -0.2140812145     2     5     5     2
 -0.0000000004     2     5     5     7
 0.0268706994     2     5     5     8
 0.0268096068     2     5     6     7
 0.0000000004     2     5     6     8
 -0.0000187057     2     5     7     6
 0.0000000001     2     5     9     1
 0.0379864773     2     5     9    10
 0.0000000090     2     5    10     3
 0.0032273785     2     5    10     4
 0.0377213329     2     5    10     9
 -0.0000001121     2     6     1     3
 -0.0431418748     2     6     1     4
 0.0013034488     2     6     1     9
 -0.0000001108     2     6     3     1
 -0.0029694390     2     6     3    10
 -0.0426786806     2     6     4     1
 0.0000000083     2     6     4    10
 0.0268277140     2     6     5     7
 0.0000000004     2     6     5     8
 -0.2140811829     2     6     6     2
 0.0000000004     2     6     6     7
 -0.0268576484     2     6     6     8
 0.0000187057     2     6     7     5
 0.0018508754     2     6     9     1
 -0.0000000100     2     6     9    10
 -0.0031887942     2     6    10     3
 0.0000000090     2     6    10     4
 -0.0000000099     2     6    10     9
 0.0000000016     2     7     1     1
 0.0018948847     2     7     1    10
 0.0000000128     2     7     3     3
 0.0023961345     2     7     3     4
 0.0021972278     2     7     3     9
 0.0023885156     2     7     4     3
 -0.0000000129     2     7     4     4
 -0.0000000055     2     7     4     9
 0.0000000004     2     7     5     5
 -0.0268277140     2     7     5     6
 -0.0268096068     2     7     6     5
 -0.0000000004     2     7     6     6
 -0.2512637218     2     7     7     2
 -0.0000103989     2     7     7     8
 0.0011970006     2     7     9     3
 -0.0000000031     2     7     9     4
 0.0030762323     2     7    10     1
 -0.0000000045     2     7    10    10
 -0.0147410714     2     8     1     1
 0.0000000006     2     8     1    10
 -0.0023898743     2     8     3     3
 0.0000000128     2     8     3     4
 -0.0000000057     2     8     3     9
 0.0000000128     2     8     4     3
 0.0023861938     2     8     4     4
 -0.0022550397     2     8     4     9
 -0.0268706994     2     8     5     5
 -0.0000000004     2     8     5     6
 -0.0000000004     2     8     6     5
 0.0268576484     2     8     6     6
 0.0000103989     2     8     7     7
 -0.2512867944     2     8     8     2
 -0.0000000031     2     8     9     3
 -0.0012045997     2     8     9     4
 -0.0000008767     2     8     9     9
 0.0000000010     2     8    10     1
 0.0083282803     2     8    10    10
 -0.0013034488     2     9     1     6
 -0.0021972278     2     9     3     7
 0.0000000057     2     9     3     8
 0.0000006724     2     9     4     2
 0.0000000055     2     9     4     7
 0.0022550397     2     9     4     8
 0.0000000001     2     9     5     1
 0.0002984888     2     9     5    10
 0.0006715353     2     9     6     1
 -0.0000000001     2     9     6    10
 -0.0005937916     2     9     7     3
 0.0000000015     2     9     7     4
 0.0000000015     2     9     8     3
 0.0005938396     2     9     8     4
 -0.1878363071     2     9     9     2
 0.0000008767     2     9     9     8
 -0.0377213329     2     9    10     5
 0.0000000099     2     9    10     6
 0.0000000062     2    10     1     2
 -0.0018948847     2    10     1     7
 -0.0000000006     2    10     1     8
 -0.0000000086     2    10     3     5
 0.0029694390     2    10     3     6
 -0.0030853306     2    10     4     5
 -0.0000000083     2    10     4     6
 0.0000000003     2    10     5     3
 0.0001243556     2    10     5     4
 -0.0002984888     2    10     5     9
 -0.0001320795     2    10     6     3
 0.0000000004     2    10     6     4
 0.0000000001     2    10     6     9
 0.0002613594     2    10     7     1
 0.0000000001     2    10     8     1
 -0.0379864773     2    10     9     5
 0.0000000100     2    10     9     6
 -0.1765773458     2    10    10     2
 0.0000000045     2    10    10     7
 -0.0083282803     2    10    10     8
 -0.2254891754     3     1     1     3
 -0.0000000122     3     1     1     4
 -0.0000000044     3     1     1     9
 -0.0426788169     3     1     2     5
 -0.0000001108     3     1     2     6
 -0.0018225444     3     1     4    10
 -0.0431442112     3     1     5     2
 -0.0000000688     3     1     5     7
 -0.0169348406     3     1     5     8
 -0.0000001121     3     1     6     2
 -0.0348003159     3     1     6     7
 0.0000000649     3     1     6     8
 -0.0000000700     3     1     7     5
 -0.0358998274     3     1     7     6
 -0.0173956145     3     1     8     5
 0.0000000679     3     1     8     6
 -0.0282261140     3     1     9    10
 0.0000000114     3     1    10     3
 0.0003263455     3     1    10     4
 -0.0291769919     3     1    10     9
 0.0004768687     3     2     1     5
 0.0000000013     3     2     1     6
 -0.2693361818     3     2     2     3
 0.0000011514     3     2     4     7
 0.0431442112     3     2     5     1
 -0.0000000090     3     2     5    10
 0.0000001121     3     2     6     1
 0.0031887942     3     2     6    10
 -0.0000000128     3     2     7     3
 -0.0023885156     3     2     7     4
 -0.0011970006     3     2     7     9
 0.0023898743     3     2     8     3
 -0.0000000128     3     2     8     4
 0.0000000031     3     2     8     9
 0.0005937916     3     2     9     7
 -0.0000000015     3     2     9     8
 -0.0000000003     3     2    10     5
 0.0001320795     3     2    10     6
 0.2254891754     3     3     1     1
 -0.0000000114     3     3     1    10
 0.2693361818     3     3     2     2
 0.0000000128     3     3     2     7
 -0.0023898743     3     3     2     8
 0.2578296122     3     3     4     4
 -0.0000007959     3     3     4     9
 0.2652361541     3     3     5     5
 0.0000000091     3     3     5     6
 0.0000000091     3     3     6     5
 0.2686658412     3     3     6     6
 0.0000000128     3     3     7     2
 0.2614781357     3     3     7     7
 -0.0000000096     3     3     7     8
 -0.0023898743     3     3     8     2
 -0.0000000096     3     3     8     7
 0.2576701880     3     3     8     8
 -0.0000007959     3     3     9     4
 0.1892598248     3     3     9     9
 -0.0000000114     3     3    10     1
 0.1750891146     3     3    10    10
 0.0000000122     3     4     1     1
 -0.0021427754     3     4     1    10
 0.0023961345     3     4     2     7
 0.0000000128     3     4     2     8
 -0.2578296122     3     4     4     3
 0.0000000092     3     4     5     5
 0.0020832077     3     4     5     6
 0.0013528906     3     4     6     5
 -0.0000000091     3     4     6     6
 0.0023885156     3     4     7     2
 -0.0000000097     3     4     7     7
 -0.0010246873     3     4     7     8
 0.0000000128     3     4     8     2
 -0.0027718154     3     4     8     7
 0.0000000096     3     4     8     8
 0.0000007959     3     4     9     3
 -0.0003263455     3     4    10     1
 0.0000000234     3     4    10    10
 -0.0004768687     3     5     1     2
 0.0000000003     3     5     1     7
 0.0002512873     3     5     1     8
 0.0426788169     3     5     2     1
 -0.0000000086     3     5     2    10
 0.0000715150     3     5     4     6
 -0.2652361541     3     5     5     3
 -0.0000000092     3     5     5     4
 0.0000000023     3     5     5     9
 -0.0000000091     3     5     6     3
 -0.0013528906     3     5     6     4
 -0.0010372742     3     5     6     9
 0.0000000700     3     5     7     1
 0.0012763968     3     5     7    10
 0.0173956145     3     5     8     1
 -0.0000000112     3     5     8    10
 0.0000054513     3     5     9     6
 0.0000000003     3     5    10     2
 0.0001061368     3     5    10     7
 -0.0000000006     3     5    10     8
 -0.0000000013     3     6     1     2
 0.0006236938     3     6     1     7
 -0.0000000020     3     6     1     8
 0.0000001108     3     6     2     1
 0.0029694390     3     6     2    10
 -0.0000715150     3     6     4     5
 -0.0000000091     3     6     5     3
 -0.0020832077     3     6     5     4
 -0.0009733212     3     6     5     9
 -0.2686658412     3     6     6     3
 0.0000000091     3     6     6     4
 -0.0000000026     3     6     6     9
 0.0358998274     3     6     7     1
 0.0000000014     3     6     7    10
 -0.0000000679     3     6     8     1
 -0.0022474093     3     6     8    10
 -0.0000054513     3     6     9     5
 -0.0001320795     3     6    10     2
 0.0000000005     3     6    10     7
 0.0000732983     3     6    10     8
 -0.0000000003     3     7     1     5
 -0.0006236938     3     7     1     6
 -0.0000000128     3     7     2     3
 -0.0023961345     3     7     2     4
 -0.0021972278     3     7     2     9
 -0.0000011514     3     7     4     2
 0.0007796143     3     7     4     8
 0.0000000688     3     7     5     1
 0.0007995449     3     7     5    10
 0.0348003159     3     7     6     1
 0.0000000003     3     7     6    10
 -0.2614781357     3     7     7     3
 0.0000000097     3     7     7     4
 -0.0000000008     3     7     7     9
 0.0000000096     3     7     8     3
 0.0027718154     3     7     8     4
 0.0002514180     3     7     8     9
 -0.0005937916     3     7     9     2
 -0.0000017555     3     7     9     8
 -0.0001061368     3     7    10     5
 -0.0000000005     3     7    10     6
 -0.0002512873     3     8     1     5
 0.0000000020     3     8     1     6
 0.0023898743     3     8     2     3
 -0.0000000128     3     8     2     4
 0.0000000057     3     8     2     9
 -0.0007796143     3     8     4     7
 0.0169348406     3     8     5     1
 -0.0000000075     3     8     5    10
 -0.0000000649     3     8     6     1
 -0.0019781761     3     8     6    10
 0.0000000096     3     8     7     3
 0.0010246873     3     8     7     4
 0.0003214529     3     8     7     9
 -0.2576701880     3     8     8     3
 -0.0000000096     3     8     8     4
 0.0000000009     3     8     8     9
 0.0000000015     3     8     9     2
 0.0000017555     3     8     9     7
 0.0000000006     3     8    10     5
 -0.0000732983     3     8    10     6
 0.0000000044     3     9     1     1
 0.0009487812     3     9     1    10
 0.0021972278     3     9     2     7
 -0.0000000057     3     9     2     8
 0.0000007959     3     9     4     3
 -0.0000000023     3     9     5     5
 0.0009733212     3     9     5     6
 0.0010372742     3     9     6     5
 0.0000000026     3     9     6     6
 0.0011970006     3     9     7     2
 0.0000000008     3     9     7     7
 -0.0003214529     3     9     7     8
 -0.0000000031     3     9     8     2
 -0.0002514180     3     9     8     7
 -0.0000000009     3     9     8     8
 -0.1892598248     3     9     9     3
 0.0291769919     3     9    10     1
 -0.0000000029     3     9    10    10
 0.0000000114     3    10     1     3
 0.0021427754     3    10     1     4
 -0.0009487812     3    10     1     9
 0.0000000086     3    10     2     5
 -0.0029694390     3    10     2     6
 0.0018225444     3    10     4     1
 0.0000000090     3    10     5     2
 -0.0007995449     3    10     5     7
 0.0000000075     3    10     5     8
 -0.0031887942     3    10     6     2
 -0.0000000003     3    10     6     7
 0.0019781761     3    10     6     8
 -0.0012763968     3    10     7     5
 -0.0000000014     3    10     7     6
 0.0000000112     3    10     8     5
 0.0022474093     3    10     8     6
 0.0282261140     3    10     9     1
 -0.1750891146     3    10    10     3
 -0.0000000234     3    10    10     4
 0.0000000029     3    10    10     9
 -0.0000000122     4     1     1     3
 -0.2301199130     4     1     1     4
 -0.0016911391     4     1     1     9
 0.0000001108     4     1     2     5
 -0.0426786806     4     1     2     6
 0.0018225444     4     1     3    10
 0.0000001121     4     1     5     2
 -0.0261558473     4     1     5     7
 0.0000000434     4     1     5     8
 -0.0431418748     4     1     6     2
 0.0000000904     4     1     6     7
 0.0255764290     4     1     6     8
 -0.0265737992     4     1     7     5
 0.0000000932     4     1     7     6
 0.0000000446     4     1     8     5
 0.0267457284     4     1     8     6
 0.0000000808     4     1     9    10
 0.0021427754     4     1    10     3
 -0.0000000011     4     1    10     4
 0.0000000836     4     1    10     9
 -0.0000000013     4     2     1     5
 0.0004766427     4     2     1     6
 -0.2693361658     4     2     2     4
 0.0000006724     4     2     2     9
 -0.0000011514     4     2     3     7
 -0.0000001121     4     2     5     1
 -0.0032273785     4     2     5    10
 0.0431418748     4     2     6     1
 -0.0000000090     4     2     6    10
 -0.0023961345     4     2     7     3
 0.0000000129     4     2     7     4
 0.0000000031     4     2     7     9
 -0.0000000128     4     2     8     3
 -0.0023861938     4     2     8     4
 0.0012045997     4     2     8     9
 -0.0000000015     4     2     9     7
 -0.0005938396     4     2     9     8
 -0.0001243556     4     2    10     5
 -0.0000000004     4     2    10     6
 0.0000000122     4     3     1     1
 -0.0003263455     4     3     1    10
 0.0023885156     4     3     2     7
 0.0000000128     4     3     2     8
 -0.2578296122     4     3     3     4
 0.0000007959     4     3     3     9
 0.0000000092     4     3     5     5
 0.0013528906     4     3     5     6
 0.0020832077     4     3     6     5
 -0.0000000091     4     3     6     6
 0.0023961345     4     3     7     2
 -0.0000000097     4     3     7     7
 -0.0027718154     4     3     7     8
 0.0000000128     4     3     8     2
 -0.0010246873     4     3     8     7
 0.0000000096     4     3     8     8
 -0.0021427754     4     3    10     1
 0.0000000234     4     3    10    10
 0.2301199130     4     4     1     1
 0.0000000011     4     4     1    10
 0.2693361658     4     4     2     2
 -0.0000000129     4     4     2     7
 0.0023861938     4     4     2     8
 0.2578296122     4     4     3     3
 0.2686776894     4     4     5     5
 -0.0000000092     4     4     5     6
 -0.0000000092     4     4     6     5
 0.2652351665     4     4     6     6
 -0.0000000129     4     4     7     2
 0.2576792460     4     4     7     7
 0.0000000096     4     4     7     8
 0.0023861938     4     4     8     2
 0.0000000096     4     4     8     7
 0.2614643177     4     4     8     8
 0.1892658257     4     4     9     9
 0.0000000011     4     4    10     1
 0.1848337661     4     4    10    10
 0.0000000013     4     5     1     2
 0.0001071090     4     5     1     7
 -0.0000000007     4     5     1     8
 -0.0000001108     4     5     2     1
 -0.0030853306     4     5     2    10
 -0.0000715150     4     5     3     6
 -0.0000000092     4     5     5     3
 -0.2686776894     4     5     5     4
 0.0009308694     4     5     5     9
 -0.0020832077     4     5     6     3
 0.0000000092     4     5     6     4
 0.0000000026     4     5     6     9
 0.0265737992     4     5     7     1
 -0.0000000034     4     5     7    10
 -0.0000000446     4     5     8     1
 -0.0043418611     4     5     8    10
 0.0001243556     4     5    10     2
 -0.0000000002     4     5    10     7
 -0.0002502600     4     5    10     8
 -0.0004766427     4     6     1     2
 -0.0000000016     4     6     1     7
 -0.0007801633     4     6     1     8
 0.0426786806     4     6     2     1
 -0.0000000083     4     6     2    10
 0.0000715150     4     6     3     5
 -0.0013528906     4     6     5     3
 0.0000000092     4     6     5     4
 0.0000000025     4     6     5     9
 0.0000000091     4     6     6     3
 -0.2652351665     4     6     6     4
 -0.0009832915     4     6     6     9
 -0.0000000932     4     6     7     1
 0.0008185168     4     6     7    10
 -0.0267457284     4     6     8     1
 0.0000000064     4     6     8    10
 0.0000000004     4     6    10     2
 0.0002166866     4     6    10     7
 -0.0000000001     4     6    10     8
 -0.0001071090     4     7     1     5
 0.0000000016     4     7     1     6
 -0.0023885156     4     7     2     3
 0.0000000129     4     7     2     4
 0.0000000055     4     7     2     9
 0.0000011514     4     7     3     2
 -0.0007796143     4     7     3     8
 0.0261558473     4     7     5     1
 -0.0000000022     4     7     5    10
 -0.0000000904     4     7     6     1
 0.0002875055     4     7     6    10
 0.0000000097     4     7     7     3
 -0.2576792460     4     7     7     4
 -0.0002854348     4     7     7     9
 0.0010246873     4     7     8     3
 -0.0000000096     4     7     8     4
 -0.0000000007     4     7     8     9
 0.0000000015     4     7     9     2
 0.0000000002     4     7    10     5
 -0.0002166866     4     7    10     6
 0.0000000007     4     8     1     5
 0.0007801633     4     8     1     6
 -0.0000000128     4     8     2     3
 -0.0023861938     4     8     2     4
 0.0022550397     4     8     2     9
 0.0007796143     4     8     3     7
 -0.0000000434     4     8     5     1
 -0.0028769930     4     8     5    10
 -0.0255764290     4     8     6     1
 0.0000000055     4     8     6    10
 0.0027718154     4     8     7     3
 -0.0000000096     4     8     7     4
 -0.0000000010     4     8     7     9
 -0.0000000096     4     8     8     3
 -0.2614643177     4     8     8     4
 0.0003363117     4     8     8     9
 0.0005938396     4     8     9     2
 0.0002502600     4     8    10     5
 0.0000000001     4     8    10     6
 0.0016911391     4     9     1     1
 -0.0000000028     4     9     1    10
 -0.0000006724     4     9     2     2
 -0.0000000055     4     9     2     7
 -0.0022550397     4     9     2     8
 -0.0000007959     4     9     3     3
 -0.0009308694     4     9     5     5
 -0.0000000025     4     9     5     6
 -0.0000000026     4     9     6     5
 0.0009832915     4     9     6     6
 -0.0000000031     4     9     7     2
 0.0002854348     4     9     7     7
 0.0000000010     4     9     7     8
 -0.0012045997     4     9     8     2
 0.0000000007     4     9     8     7
 -0.0003363117     4     9     8     8
 -0.1892658257     4     9     9     4
 -0.0000000836     4     9    10     1
 -0.0009288258     4     9    10    10
 0.0003263455     4    10     1     3
 -0.0000000011     4    10     1     4
 0.0000000028     4    10     1     9
 0.0030853306     4    10     2     5
 0.0000000083     4    10     2     6
 -0.0018225444     4    10     3     1
 0.0032273785     4    10     5     2
 0.0000000022     4    10     5     7
 0.0028769930     4    10     5     8
 0.0000000090     4    10     6     2
 -0.0002875055     4    10     6     7
 -0.0000000055     4    10     6     8
 0.0000000034     4    10     7     5
 -0.0008185168     4    10     7     6
 0.0043418611     4    10     8     5
 -0.0000000064     4    10     8     6
 -0.0000000808     4    10     9     1
 -0.0000000234     4    10    10     3
 -0.1848337661     4    10    10     4
 0.0009288258     4    10    10     9
 -0.2532088376     5     1     1     5
 -0.0000000013     5     1     1     6
 0.0004768687     5     1     2     3
 -0.0000000013     5     1     2     4
 0.0000000001     5     1     2     9
 0.0431442112     5     1     3     2
 0.0000000688     5     1     3     7
 0.0169348406     5     1     3     8
 -0.0000001121     5     1     4     2