&FCI NORB= 13,NELEC= 14,MS2=0,
 ORBSYM=1,1,1,1,1,1,1,1,1,1,1,1,1
 ISYM=1,
&END
 0.2545217455     1     1     2     2
 0.0000000023     1     1     2     3
 -0.0006079538     1     1     2     4
 -0.0000000237     1     1     2     5
 0.0043786134     1     1     2    10
 -0.0039800873     1     1     2    13
 0.0000000023     1     1     3     2
 0.5820639534     1     1     3     3
 -0.0000036739     1     1     3     4
 -0.0105561347     1     1     3     5
 -0.0000008191     1     1     3    10
 -0.0000007728     1     1     3    13
 -0.0006079538     1     1     4     2
 -0.0000036739     1     1     4     3
 0.5876042910     1     1     4     4
 -0.0000012632     1     1     4     5
 0.0439863573     1     1     4    10
 0.1157028552     1     1     4    13
 -0.0000000237     1     1     5     2
 -0.0105561347     1     1     5     3
 -0.0000012632     1     1     5     4
 0.5644193768     1     1     5     5
 0.0000033885     1     1     5    10
 -0.0000019290     1     1     5    13
 0.5452149423     1     1     6     6
 -0.0000032162     1     1     6     8
 -0.0000013815     1     1     6     9
 0.1456026893     1     1     6    11
 0.1423945916     1     1     6    12
 0.5452149423     1     1     7     7
 0.0000013815     1     1     7     8
 -0.0000032162     1     1     7     9
 0.1423945916     1     1     7    11
 -0.1456026893     1     1     7    12
 -0.0000032162     1     1     8     6
 0.0000013815     1     1     8     7
 0.5640329203     1     1     8     8
 -0.0000009370     1     1     8    11
 -0.0000022740     1     1     8    12
 -0.0000013815     1     1     9     6
 -0.0000032162     1     1     9     7
 0.5640329203     1     1     9     9
 -0.0000022740     1     1     9    11
 0.0000009370     1     1     9    12
 0.0043786134     1     1    10     2
 -0.0000008191     1     1    10     3
 0.0439863573     1     1    10     4
 0.0000033885     1     1    10     5
 0.6031519771     1     1    10    10
 -0.1723489402     1     1    10    13
 0.1456026893     1     1    11     6
 0.1423945916     1     1    11     7
 -0.0000009370     1     1    11     8
 -0.0000022740     1     1    11     9
 0.5517924653     1     1    11    11
 0.1423945916     1     1    12     6
 -0.1456026893     1     1    12     7
 -0.0000022740     1     1    12     8
 0.0000009370     1     1    12     9
 0.5517924653     1     1    12    12
 -0.0039800873     1     1    13     2
 -0.0000007728     1     1    13     3
 0.1157028552     1     1    13     4
 -0.0000019290     1     1    13     5
 -0.1723489402     1     1    13    10
 0.4919784533     1     1    13    13
 -0.2545217455     1     2     2     1
 -0.0003918496     1     2     2     3
 -0.0000000035     1     2     2     4
 0.0041819759     1     2     2     5
 0.0000000248     1     2     2    10
 -0.0000000226     1     2     2    13
 -0.0000000023     1     2     3     1
 -0.0000000043     1     2     3     3
 0.3242541340     1     2     3     4
 -0.0000000004     1     2     3     5
 0.0722819676     1     2     3    10
 0.0680028352     1     2     3    13
 0.0006079538     1     2     4     1
 0.3242567249     1     2     4     3
 0.0000000040     1     2     4     4
 0.1114752640     1     2     4     5
 0.0000000004     1     2     4    10
 -0.0000000014     1     2     4    13
 0.0000000237     1     2     5     1
 -0.0000000004     1     2     5     3
 0.1114985735     1     2     5     4
 -0.0000000015     1     2     5     5
 -0.2991320534     1     2     5    10
 0.1701561751     1     2     5    13
 -0.0000000015     1     2     6     6
 0.2838845708     1     2     6     8
 0.1219376939     1     2     6     9
 -0.0000000012     1     2     6    11
 -0.0000000012     1     2     6    12
 -0.0000000015     1     2     7     7
 -0.1219376939     1     2     7     8
 0.2838845708     1     2     7     9
 -0.0000000012     1     2     7    11
 0.0000000012     1     2     7    12
 0.2838220983     1     2     8     6
 -0.1219108599     1     2     8     7
 0.0000000014     1     2     8     8
 0.0826561931     1     2     8    11
 0.2006074464     1     2     8    12
 0.1219108599     1     2     9     6
 0.2838220983     1     2     9     7
 0.0000000014     1     2     9     9
 0.2006074464     1     2     9    11
 -0.0826561931     1     2     9    12
 -0.0043786134     1     2    10     1
 0.0722644891     1     2    10     3
 0.0000000004     1     2    10     4
 -0.2989887803     1     2    10     5
 0.0000000014     1     2    10    10
 -0.0000000002     1     2    10    13
 -0.0000000012     1     2    11     6
 -0.0000000012     1     2    11     7
 0.0826864739     1     2    11     8
 0.2006809381     1     2    11     9
 -0.0000000037     1     2    11    11
 -0.0000000012     1     2    12     6
 0.0000000012     1     2    12     7
 0.2006809381     1     2    12     8
 -0.0826864739     1     2    12     9
 -0.0000000037     1     2    12    12
 0.0039800873     1     2    13     1
 0.0680190591     1     2    13     3
 -0.0000000014     1     2    13     4
 0.1700244351     1     2    13     5
 -0.0000000002     1     2    13    10
 -0.0000000057     1     2    13    13
 -0.0000000023     1     3     2     1
 0.0003918496     1     3     2     2
 -0.0000025909     1     3     2     4
 0.0000174785     1     3     2    10
 -0.0000162239     1     3     2    13
 -0.5820639534     1     3     3     1
 0.0000000043     1     3     3     2
 -0.0000000022     1     3     3     4
 0.0037909952     1     3     3     5
 0.0000000259     1     3     3    10
 -0.0000000233     1     3     3    13
 0.0000036739     1     3     4     1
 -0.3242567249     1     3     4     2
 -0.0007708593     1     3     4     4
 0.0000000253     1     3     4     5
 0.0045639932     1     3     4    10
 -0.0043578362     1     3     4    13
 0.0105561347     1     3     5     1
 0.0000000004     1     3     5     2
 0.0000000223     1     3     5     4
 -0.0185125757     1     3     5     5
 -0.0000001166     1     3     5    10
 0.0000001135     1     3     5    13
 -0.0173908243     1     3     6     6
 0.0000000984     1     3     6     8
 0.0000000423     1     3     6     9
 -0.0162180158     1     3     6    11
 -0.0158606805     1     3     6    12
 -0.0173908243     1     3     7     7
 -0.0000000423     1     3     7     8
 0.0000000984     1     3     7     9
 -0.0158606805     1     3     7    11
 0.0162180158     1     3     7    12
 0.0000000922     1     3     8     6
 -0.0000000397     1     3     8     7
 -0.0185562071     1     3     8     8
 0.0000000492     1     3     8    11
 0.0000001195     1     3     8    12
 0.0000000397     1     3     9     6
 0.0000000922     1     3     9     7
 -0.0185562071     1     3     9     9
 0.0000001195     1     3     9    11
 -0.0000000492     1     3     9    12
 0.0000008191     1     3    10     1
 -0.0722644891     1     3    10     2
 0.0039070958     1     3    10     4
 -0.0000001020     1     3    10     5
 -0.0193192654     1     3    10    10
 0.0191347680     1     3    10    13
 -0.0105966614     1     3    11     6
 -0.0103631827     1     3    11     7
 0.0000000342     1     3    11     8
 0.0000000832     1     3    11     9
 -0.0196102868     1     3    11    11
 -0.0103631827     1     3    12     6
 0.0105966614     1     3    12     7
 0.0000000832     1     3    12     8
 -0.0000000342     1     3    12     9
 -0.0196102868     1     3    12    12
 0.0000007728     1     3    13     1
 -0.0680190591     1     3    13     2
 -0.0026901984     1     3    13     4
 0.0000000712     1     3    13     5
 0.0134325231     1     3    13    10
 -0.0142519315     1     3    13    13
 0.0006079538     1     4     2     1
 0.0000000035     1     4     2     2
 0.0000025909     1     4     2     3
 -0.0000233095     1     4     2     5
 0.0000036739     1     4     3     1
 -0.3242541340     1     4     3     2
 0.0000000022     1     4     3     3
 0.0000000030     1     4     3     5
 0.0006568974     1     4     3    10
 -0.0016676378     1     4     3    13
 -0.5876042910     1     4     4     1
 -0.0000000040     1     4     4     2
 0.0007708593     1     4     4     3
 -0.0009900709     1     4     4     5
 -0.0000000061     1     4     4    10
 0.0000000127     1     4     4    13
 0.0000012632     1     4     5     1
 -0.1114985735     1     4     5     2
 -0.0000000223     1     4     5     3
 0.0000001004     1     4     5     5
 0.0197978147     1     4     5    10
 -0.0181711126     1     4     5    13
 0.0000001000     1     4     6     6
 -0.0167164165     1     4     6     8
 -0.0071802468     1     4     6     9
 0.0000000908     1     4     6    11
 0.0000000888     1     4     6    12
 0.0000001000     1     4     7     7
 0.0071802468     1     4     7     8
 -0.0167164165     1     4     7     9
 0.0000000888     1     4     7    11
 -0.0000000908     1     4     7    12
 -0.0171926223     1     4     8     6
 0.0073847927     1     4     8     7
 0.0000001153     1     4     8     8
 -0.0093096733     1     4     8    11
 -0.0225946746     1     4     8    12
 -0.0073847927     1     4     9     6
 -0.0171926223     1     4     9     7
 0.0000001153     1     4     9     9
 -0.0225946746     1     4     9    11
 0.0093096733     1     4     9    12
 -0.0439863573     1     4    10     1
 -0.0000000004     1     4    10     2
 -0.0039070958     1     4    10     3
 0.0189984988     1     4    10     5
 0.0000001284     1     4    10    10
 -0.0000001137     1     4    10    13
 0.0000000645     1     4    11     6
 0.0000000630     1     4    11     7
 -0.0064416729     1     4    11     8
 -0.0156340075     1     4    11     9
 0.0000001220     1     4    11    11
 0.0000000630     1     4    12     6
 -0.0000000645     1     4    12     7
 -0.0156340075     1     4    12     8
 0.0064416729     1     4    12     9
 0.0000001220     1     4    12    12
 -0.1157028552     1     4    13     1
 0.0000000014     1     4    13     2
 0.0026901984     1     4    13     3
 -0.0124427116     1     4    13     5
 -0.0000000832     1     4    13    10
 0.0000000746     1     4    13    13
 0.0000000237     1     5     2     1
 -0.0041819759     1     5     2     2
 0.0000233095     1     5     2     4
 -0.0001432731     1     5     2    10
 0.0001317400     1     5     2    13
 0.0105561347     1     5     3     1
 0.0000000004     1     5     3     2
 -0.0037909952     1     5     3     3
 -0.0000000030     1     5     3     4
 -0.0000000146     1     5     3    10
 0.0000000423     1     5     3    13
 0.0000012632     1     5     4     1
 -0.1114752640     1     5     4     2
 -0.0000000253     1     5     4     3
 0.0009900709     1     5     4     4
 0.0007993159     1     5     4    10
 -0.0057284010     1     5     4    13
 -0.5644193768     1     5     5     1
 0.0000000015     1     5     5     2
 0.0185125757     1     5     5     3
 -0.0000001004     1     5     5     4
 -0.0000000050     1     5     5    10
 -0.0000000267     1     5     5    13
 -0.0045284931     1     5     6     6
 0.0000000023     1     5     6     8
 0.0000000010     1     5     6     9
 -0.0017465065     1     5     6    11
 -0.0017080254     1     5     6    12
 -0.0045284931     1     5     7     7
 -0.0000000010     1     5     7     8
 0.0000000023     1     5     7     9
 -0.0017080254     1     5     7    11
 0.0017465065     1     5     7    12
 0.0000000065     1     5     8     6
 -0.0000000027     1     5     8     7
 -0.0045377461     1     5     8     8
 0.0000000069     1     5     8    11
 0.0000000167     1     5     8    12
 0.0000000027     1     5     9     6
 0.0000000065     1     5     9     7
 -0.0045377461     1     5     9     9
 0.0000000167     1     5     9    11
 -0.0000000069     1     5     9    12
 -0.0000033885     1     5    10     1
 0.2989887803     1     5    10     2
 0.0000001020     1     5    10     3
 -0.0189984988     1     5    10     4
 -0.0104070115     1     5    10    10
 -0.0005455200     1     5    10    13
 -0.0020604911     1     5    11     6
 -0.0020150919     1     5    11     7
 0.0000000057     1     5    11     8
 0.0000000139     1     5    11     9
 -0.0058954412     1     5    11    11
 -0.0020150919     1     5    12     6
 0.0020604911     1     5    12     7
 0.0000000139     1     5    12     8
 -0.0000000057     1     5    12     9
 -0.0058954412     1     5    12    12
 0.0000019290     1     5    13     1
 -0.1700244351     1     5    13     2
 -0.0000000712     1     5    13     3
 0.0124427116     1     5    13     4
 0.0060560796     1     5    13    10
 0.0048355325     1     5    13    13
 0.0000624725     1     6     2     8
 0.0000268340     1     6     2     9
 0.0000000062     1     6     3     8
 0.0000000026     1     6     3     9
 -0.0056213544     1     6     3    11
 -0.0054974978     1     6     3    12
 0.0004762058     1     6     4     8
 0.0002045459     1     6     4     9
 0.0000000263     1     6     4    11
 0.0000000258     1     6     4    12
 -0.0000000042     1     6     5     8
 -0.0000000017     1     6     5     9
 0.0003139846     1     6     5    11
 0.0003070665     1     6     5    12
 -0.5452149423     1     6     6     1
 0.0000000015     1     6     6     2
 0.0173908243     1     6     6     3
 -0.0000001000     1     6     6     4
 0.0045284931     1     6     6     5
 -0.0000000084     1     6     6    10
 -0.0000000445     1     6     6    13
 0.0000032162     1     6     8     1
 -0.2838220983     1     6     8     2
 -0.0000000922     1     6     8     3
 0.0171926223     1     6     8     4
 -0.0000000065     1     6     8     5
 0.0056548797     1     6     8    10
 0.0037403058     1     6     8    13
 0.0000013815     1     6     9     1
 -0.1219108599     1     6     9     2
 -0.0000000397     1     6     9     3
 0.0073847927     1     6     9     4
 -0.0000000027     1     6     9     5
 0.0024289555     1     6     9    10
 0.0016065835     1     6     9    13
 -0.0001098479     1     6    10     8
 -0.0000471833     1     6    10     9
 0.0000000069     1     6    10    11
 0.0000000067     1     6    10    12
 -0.1456026893     1     6    11     1
 0.0000000012     1     6    11     2
 0.0105966614     1     6    11     3
 -0.0000000645     1     6    11     4
 0.0020604911     1     6    11     5
 -0.0000000167     1     6    11    10
 -0.0000000310     1     6    11    13
 -0.1423945916     1     6    12     1
 0.0000000012     1     6    12     2
 0.0103631827     1     6    12     3
 -0.0000000630     1     6    12     4
 0.0020150919     1     6    12     5
 -0.0000000163     1     6    12    10
 -0.0000000304     1     6    12    13
 0.0000201700     1     6    13     8
 0.0000086636     1     6    13     9
 -0.0000000031     1     6    13    11
 -0.0000000030     1     6    13    12
 -0.0000268340     1     7     2     8
 0.0000624725     1     7     2     9
 -0.0000000026     1     7     3     8
 0.0000000062     1     7     3     9
 -0.0054974978     1     7     3    11
 0.0056213544     1     7     3    12
 -0.0002045459     1     7     4     8
 0.0004762058     1     7     4     9
 0.0000000258     1     7     4    11
 -0.0000000263     1     7     4    12
 0.0000000017     1     7     5     8
 -0.0000000042     1     7     5     9
 0.0003070665     1     7     5    11
 -0.0003139846     1     7     5    12
 -0.5452149423     1     7     7     1
 0.0000000015     1     7     7     2
 0.0173908243     1     7     7     3
 -0.0000001000     1     7     7     4
 0.0045284931     1     7     7     5
 -0.0000000084     1     7     7    10
 -0.0000000445     1     7     7    13
 -0.0000013815     1     7     8     1
 0.1219108599     1     7     8     2
 0.0000000397     1     7     8     3
 -0.0073847927     1     7     8     4
 0.0000000027     1     7     8     5
 -0.0024289555     1     7     8    10
 -0.0016065835     1     7     8    13
 0.0000032162     1     7     9     1
 -0.2838220983     1     7     9     2
 -0.0000000922     1     7     9     3
 0.0171926223     1     7     9     4
 -0.0000000065     1     7     9     5
 0.0056548797     1     7     9    10
 0.0037403058     1     7     9    13
 0.0000471833     1     7    10     8
 -0.0001098479     1     7    10     9
 0.0000000067     1     7    10    11
 -0.0000000069     1     7    10    12
 -0.1423945916     1     7    11     1
 0.0000000012     1     7    11     2
 0.0103631827     1     7    11     3
 -0.0000000630     1     7    11     4
 0.0020150919     1     7    11     5
 -0.0000000163     1     7    11    10
 -0.0000000304     1     7    11    13
 0.1456026893     1     7    12     1
 -0.0000000012     1     7    12     2
 -0.0105966614     1     7    12     3
 0.0000000645     1     7    12     4
 -0.0020604911     1     7    12     5
 0.0000000167     1     7    12    10
 0.0000000310     1     7    12    13
 -0.0000086636     1     7    13     8
 0.0000201700     1     7    13     9
 -0.0000000030     1     7    13    11
 0.0000000031     1     7    13    12
 -0.0000624725     1     8     2     6
 0.0000268340     1     8     2     7
 -0.0000302808     1     8     2    11
 -0.0000734917     1     8     2    12
 -0.0000000062     1     8     3     6
 0.0000000026     1     8     3     7
 0.0000000150     1     8     3    11
 0.0000000363     1     8     3    12
 -0.0004762058     1     8     4     6
 0.0002045459     1     8     4     7
 -0.0028680004     1     8     4    11
 -0.0069606671     1     8     4    12
 0.0000000042     1     8     5     6
 -0.0000000017     1     8     5     7
 0.0000000012     1     8     5    11
 0.0000000028     1     8     5    12
 0.0000032162     1     8     6     1
 -0.2838845708     1     8     6     2
 -0.0000000984     1     8     6     3
 0.0167164165     1     8     6     4
 -0.0000000023     1     8     6     5
 0.0057647276     1     8     6    10
 0.0037201358     1     8     6    13
 -0.0000013815     1     8     7     1
 0.1219376939     1     8     7     2
 0.0000000423     1     8     7     3
 -0.0071802468     1     8     7     4
 0.0000000010     1     8     7     5
 -0.0024761388     1     8     7    10
 -0.0015979199     1     8     7    13
 -0.5640329203     1     8     8     1
 -0.0000000014     1     8     8     2
 0.0185562071     1     8     8     3
 -0.0000001153     1     8     8     4
 0.0045377461     1     8     8     5
 -0.0000000178     1     8     8    10
 -0.0000000421     1     8     8    13
 0.0001098479     1     8    10     6
 -0.0000471833     1     8    10     7
 -0.0006149301     1     8    10    11
 -0.0014924419     1     8    10    12
 0.0000009370     1     8    11     1
 -0.0826864739     1     8    11     2
 -0.0000000342     1     8    11     3
 0.0064416729     1     8    11     4
 -0.0000000057     1     8    11     5
 0.0018264467     1     8    11    10
 0.0029472906     1     8    11    13
 0.0000022740     1     8    12     1
 -0.2006809381     1     8    12     2
 -0.0000000832     1     8    12     3
 0.0156340075     1     8    12     4
 -0.0000000139     1     8    12     5
 0.0044328054     1     8    12    10
 0.0071531054     1     8    12    13
 -0.0000201700     1     8    13     6
 0.0000086636     1     8    13     7
 0.0002938506     1     8    13    11
 0.0007131786     1     8    13    12
 -0.0000268340     1     9     2     6
 -0.0000624725     1     9     2     7
 -0.0000734917     1     9     2    11
 0.0000302808     1     9     2    12
 -0.0000000026     1     9     3     6
 -0.0000000062     1     9     3     7
 0.0000000363     1     9     3    11
 -0.0000000150     1     9     3    12
 -0.0002045459     1     9     4     6
 -0.0004762058     1     9     4     7
 -0.0069606671     1     9     4    11
 0.0028680004     1     9     4    12
 0.0000000017     1     9     5     6
 0.0000000042     1     9     5     7
 0.0000000028     1     9     5    11
 -0.0000000012     1     9     5    12
 0.0000013815     1     9     6     1
 -0.1219376939     1     9     6     2
 -0.0000000423     1     9     6     3
 0.0071802468     1     9     6     4
 -0.0000000010     1     9     6     5
 0.0024761388     1     9     6    10
 0.0015979199     1     9     6    13
 0.0000032162     1     9     7     1
 -0.2838845708     1     9     7     2
 -0.0000000984     1     9     7     3
 0.0167164165     1     9     7     4
 -0.0000000023     1     9     7     5
 0.0057647276     1     9     7    10
 0.0037201358     1     9     7    13
 -0.5640329203     1     9     9     1
 -0.0000000014     1     9     9     2
 0.0185562071     1     9     9     3
 -0.0000001153     1     9     9     4
 0.0045377461     1     9     9     5
 -0.0000000178     1     9     9    10
 -0.0000000421     1     9     9    13
 0.0000471833     1     9    10     6
 0.0001098479     1     9    10     7
 -0.0014924419     1     9    10    11
 0.0006149301     1     9    10    12
 0.0000022740     1     9    11     1
 -0.2006809381     1     9    11     2
 -0.0000000832     1     9    11     3
 0.0156340075     1     9    11     4
 -0.0000000139     1     9    11     5
 0.0044328054     1     9    11    10
 0.0071531054     1     9    11    13
 -0.0000009370     1     9    12     1
 0.0826864739     1     9    12     2
 0.0000000342     1     9    12     3
 -0.0064416729     1     9    12     4
 0.0000000057     1     9    12     5
 -0.0018264467     1     9    12    10
 -0.0029472906     1     9    12    13
 -0.0000086636     1     9    13     6
 -0.0000201700     1     9    13     7
 0.0007131786     1     9    13    11
 -0.0002938506     1     9    13    12
 -0.0043786134     1    10     2     1
 -0.0000000248     1    10     2     2
 -0.0000174785     1    10     2     3
 0.0001432731     1    10     2     5
 0.0000008191     1    10     3     1
 -0.0722819676     1    10     3     2
 -0.0000000259     1    10     3     3
 -0.0006568974     1    10     3     4
 0.0000000146     1    10     3     5
 0.0057022449     1    10     3    13
 -0.0439863573     1    10     4     1
 -0.0000000004     1    10     4     2
 -0.0045639932     1    10     4     3
 0.0000000061     1    10     4     4
 -0.0007993159     1    10     4     5
 -0.0000000305     1    10     4    13
 -0.0000033885     1    10     5     1
 0.2991320534     1    10     5     2
 0.0000001166     1    10     5     3
 -0.0197978147     1    10     5     4
 0.0000000050     1    10     5     5
 -0.0066015996     1    10     5    13
 0.0000000084     1    10     6     6
 -0.0057647276     1    10     6     8
 -0.0024761388     1    10     6     9
 0.0000000236     1    10     6    11
 0.0000000230     1    10     6    12
 0.0000000084     1    10     7     7
 0.0024761388     1    10     7     8
 -0.0057647276     1    10     7     9
 0.0000000230     1    10     7    11
 -0.0000000236     1    10     7    12
 -0.0056548797     1    10     8     6
 0.0024289555     1    10     8     7
 0.0000000178     1    10     8     8
 -0.0024413768     1    10     8    11
 -0.0059252473     1    10     8    12
 -0.0024289555     1    10     9     6
 -0.0056548797     1    10     9     7
 0.0000000178     1    10     9     9
 -0.0059252473     1    10     9    11
 0.0024413768     1    10     9    12
 -0.6031519771     1    10    10     1
 -0.0000000014     1    10    10     2
 0.0193192654     1    10    10     3
 -0.0000001284     1    10    10     4
 0.0104070115     1    10    10     5
 -0.0000000653     1    10    10    13
 0.0000000167     1    10    11     6
 0.0000000163     1    10    11     7
 -0.0018264467     1    10    11     8
 -0.0044328054     1    10    11     9
 0.0000000179     1    10    11    11
 0.0000000163     1    10    12     6
 -0.0000000167     1    10    12     7
 -0.0044328054     1    10    12     8
 0.0018264467     1    10    12     9
 0.0000000179     1    10    12    12
 0.1723489402     1    10    13     1
 0.0000000002     1    10    13     2
 -0.0134325231     1    10    13     3
 0.0000000832     1    10    13     4
 -0.0060560796     1    10    13     5
 0.0000000683     1    10    13    13
 0.0000302808     1    11     2     8
 0.0000734917     1    11     2     9
 0.0056213544     1    11     3     6
 0.0054974978     1    11     3     7
 -0.0000000150     1    11     3     8
 -0.0000000363     1    11     3     9
 -0.0000000263     1    11     4     6
 -0.0000000258     1    11     4     7
 0.0028680004     1    11     4     8
 0.0069606671     1    11     4     9
 -0.0003139846     1    11     5     6
 -0.0003070665     1    11     5     7
 -0.0000000012     1    11     5     8
 -0.0000000028     1    11     5     9
 -0.1456026893     1    11     6     1
 0.0000000012     1    11     6     2
 0.0162180158     1    11     6     3
 -0.0000000908     1    11     6     4
 0.0017465065     1    11     6     5
 -0.0000000236     1    11     6    10
 -0.0000000279     1    11     6    13
 -0.1423945916     1    11     7     1
 0.0000000012     1    11     7     2
 0.0158606805     1    11     7     3
 -0.0000000888     1    11     7     4
 0.0017080254     1    11     7     5
 -0.0000000230     1    11     7    10
 -0.0000000274     1    11     7    13
 0.0000009370     1    11     8     1
 -0.0826561931     1    11     8     2
 -0.0000000492     1    11     8     3
 0.0093096733     1    11     8     4
 -0.0000000069     1    11     8     5
 0.0024413768     1    11     8    10
 0.0026534400     1    11     8    13
 0.0000022740     1    11     9     1
 -0.2006074464     1    11     9     2
 -0.0000001195     1    11     9     3
 0.0225946746     1    11     9     4
 -0.0000000167     1    11     9     5
 0.0059252473     1    11     9    10
 0.0064399268     1    11     9    13
 -0.0000000069     1    11    10     6
 -0.0000000067     1    11    10     7
 0.0006149301     1    11    10     8
 0.0014924419     1    11    10     9
 -0.5517924653     1    11    11     1
 0.0000000037     1    11    11     2
 0.0196102868     1    11    11     3
 -0.0000001220     1    11    11     4
 0.0058954412     1    11    11     5
 -0.0000000179     1    11    11    10
 -0.0000000694     1    11    11    13
 0.0000000031     1    11    13     6
 0.0000000030     1    11    13     7
 -0.0002938506     1    11    13     8
 -0.0007131786     1    11    13     9
 0.0000734917     1    12     2     8
 -0.0000302808     1    12     2     9
 0.0054974978     1    12     3     6
 -0.0056213544     1    12     3     7
 -0.0000000363     1    12     3     8
 0.0000000150     1    12     3     9
 -0.0000000258     1    12     4     6
 0.0000000263     1    12     4     7
 0.0069606671     1    12     4     8
 -0.0028680004     1    12     4     9
 -0.0003070665     1    12     5     6
 0.0003139846     1    12     5     7
 -0.0000000028     1    12     5     8
 0.0000000012     1    12     5     9
 -0.1423945916     1    12     6     1
 0.0000000012     1    12     6     2
 0.0158606805     1    12     6     3
 -0.0000000888     1    12     6     4
 0.0017080254     1    12     6     5
 -0.0000000230     1    12     6    10
 -0.0000000274     1    12     6    13
 0.1456026893     1    12     7     1
 -0.0000000012     1    12     7     2
 -0.0162180158     1    12     7     3
 0.0000000908     1    12     7     4
 -0.0017465065     1    12     7     5
 0.0000000236     1    12     7    10
 0.0000000279     1    12     7    13
 0.0000022740     1    12     8     1
 -0.2006074464     1    12     8     2
 -0.0000001195     1    12     8     3
 0.0225946746     1    12     8     4
 -0.0000000167     1    12     8     5
 0.0059252473     1    12     8    10
 0.0064399268     1    12     8    13
 -0.0000009370     1    12     9     1
 0.0826561931     1    12     9     2
 0.0000000492     1    12     9     3
 -0.0093096733     1    12     9     4
 0.0000000069     1    12     9     5
 -0.0024413768     1    12     9    10
 -0.0026534400     1    12     9    13
 -0.0000000067     1    12    10     6
 0.0000000069     1    12    10     7
 0.0014924419     1    12    10     8
 -0.0006149301     1    12    10     9
 -0.5517924653     1    12    12     1
 0.0000000037     1    12    12     2
 0.0196102868     1    12    12     3
 -0.0000001220     1    12    12     4
 0.0058954412     1    12    12     5
 -0.0000000179     1    12    12    10
 -0.0000000694     1    12    12    13
 0.0000000030     1    12    13     6
 -0.0000000031     1    12    13     7
 -0.0007131786     1    12    13     8
 0.0002938506     1    12    13     9
 0.0039800873     1    13     2     1
 0.0000000226     1    13     2     2
 0.0000162239     1    13     2     3
 -0.0001317400     1    13     2     5
 0.0000007728     1    13     3     1
 -0.0680028352     1    13     3     2
 0.0000000233     1    13     3     3
 0.0016676378     1    13     3     4
 -0.0000000423     1    13     3     5
 -0.0057022449     1    13     3    10
 -0.1157028552     1    13     4     1
 0.0000000014     1    13     4     2
 0.0043578362     1    13     4     3
 -0.0000000127     1    13     4     4
 0.0057284010     1    13     4     5
 0.0000000305     1    13     4    10
 0.0000019290     1    13     5     1
 -0.1701561751     1    13     5     2
 -0.0000001135     1    13     5     3
 0.0181711126     1    13     5     4
 0.0000000267     1    13     5     5
 0.0066015996     1    13     5    10
 0.0000000445     1    13     6     6
 -0.0037201358     1    13     6     8
 -0.0015979199     1    13     6     9
 0.0000000279     1    13     6    11
 0.0000000274     1    13     6    12
 0.0000000445     1    13     7     7
 0.0015979199     1    13     7     8
 -0.0037201358     1    13     7     9
 0.0000000274     1    13     7    11
 -0.0000000279     1    13     7    12
 -0.0037403058     1    13     8     6
 0.0016065835     1    13     8     7
 0.0000000421     1    13     8     8
 -0.0026534400     1    13     8    11
 -0.0064399268     1    13     8    12
 -0.0016065835     1    13     9     6
 -0.0037403058     1    13     9     7
 0.0000000421     1    13     9     9
 -0.0064399268     1    13     9    11