&FCI NORB=  6,NELEC=  6,MS2=0,
 ORBSYM=1,1,1,1,1,1
 ISYM=1,
&END
 0.2694021880     1     1     2     2
 0.0000000009     1     1     2     3
 0.0000000009     1     1     3     2
 0.2663515079     1     1     3     3
 0.2514777240     1     1     4     4
 0.0000000002     1     1     4     5
 0.0000000002     1     1     5     4
 0.2555054549     1     1     5     5
 0.1727091490     1     1     6     6
 -0.2694021880     1     2     2     1
 -0.0003674253     1     2     2     6
 -0.0000000009     1     2     3     1
 0.0000000001     1     2     3     6
 -0.0000000009     1     3     2     1
 0.0000000001     1     3     2     6
 -0.2663515079     1     3     3     1
 0.0003680029     1     3     3     6
 -0.2514777240     1     4     4     1
 -0.0002792947     1     4     4     6
 -0.0000000002     1     4     5     1
 -0.0000000003     1     4     5     6
 -0.0000000002     1     5     4     1
 -0.0000000003     1     5     4     6
 -0.2555054549     1     5     5     1
 0.0002790516     1     5     5     6
 0.0003674253     1     6     2     2
 -0.0000000001     1     6     2     3
 -0.0000000001     1     6     3     2
 -0.0003680029     1     6     3     3
 0.0002792947     1     6     4     4
 0.0000000003     1     6     4     5
 0.0000000003     1     6     5     4
 -0.0002790516     1     6     5     5
 -0.1727091490     1     6     6     1
 -0.2694021880     2     1     1     2
 -0.0000000009     2     1     1     3
 -0.0003674253     2     1     6     2
 0.0000000001     2     1     6     3
 0.2694021880     2     2     1     1
 0.0003674253     2     2     1     6
 0.2489032135     2     2     3     3
 0.2264269251     2     2     4     4
 -0.0000000022     2     2     4     5
 -0.0000000022     2     2     5     4
 0.2354930807     2     2     5     5
 0.0003674253     2     2     6     1
 0.1700595158     2     2     6     6
 0.0000000009     2     3     1     1
 -0.0000000001     2     3     1     6
 -0.2489032135     2     3     3     2
 -0.0000000022     2     3     4     4
 0.0257280652     2     3     4     5
 -0.0166618590     2     3     5     4
 0.0000000022     2     3     5     5
 -0.0000000001     2     3     6     1
 0.0418464918     2     4     3     5
 -0.2264269251     2     4     4     2
 0.0000000022     2     4     4     3
 0.0000000022     2     4     5     2
 0.0166618590     2     4     5     3
 -0.0418464918     2     5     3     4
 0.0000000022     2     5     4     2
 -0.0257280652     2     5     4     3
 -0.2354930807     2     5     5     2
 -0.0000000022     2     5     5     3
 -0.0003674253     2     6     1     2
 0.0000000001     2     6     1     3
 -0.1700595158     2     6     6     2
 -0.0000000009     3     1     1     2
 -0.2663515079     3     1     1     3
 0.0000000001     3     1     6     2
 0.0003680029     3     1     6     3
 0.0000000009     3     2     1     1
 -0.0000000001     3     2     1     6
 -0.2489032135     3     2     2     3
 -0.0000000022     3     2     4     4
 -0.0166618590     3     2     4     5
 0.0257280652     3     2     5     4
 0.0000000022     3     2     5     5
 -0.0000000001     3     2     6     1
 0.2663515079     3     3     1     1
 -0.0003680029     3     3     1     6
 0.2489032135     3     3     2     2
 0.2354923967     3     3     4     4
 0.0000000022     3     3     4     5
 0.0000000022     3     3     5     4
 0.2264270930     3     3     5     5
 -0.0003680029     3     3     6     1
 0.1700596030     3     3     6     6
 -0.0418464918     3     4     2     5
 0.0000000022     3     4     4     2
 -0.2354923967     3     4     4     3
 -0.0257280652     3     4     5     2
 -0.0000000022     3     4     5     3
 0.0418464918     3     5     2     4
 0.0166618590     3     5     4     2
 -0.0000000022     3     5     4     3
 -0.0000000022     3     5     5     2
 -0.2264270930     3     5     5     3
 0.0000000001     3     6     1     2
 0.0003680029     3     6     1     3
 -0.1700596030     3     6     6     3
 -0.2514777240     4     1     1     4
 -0.0000000002     4     1     1     5
 -0.0002792947     4     1     6     4
 -0.0000000003     4     1     6     5
 -0.2264269251     4     2     2     4
 0.0000000022     4     2     2     5
 0.0000000022     4     2     3     4
 0.0166618590     4     2     3     5
 0.0418464918     4     2     5     3
 0.0000000022     4     3     2     4
 -0.0257280652     4     3     2     5
 -0.2354923967     4     3     3     4
 -0.0000000022     4     3     3     5
 -0.0418464918     4     3     5     2
 0.2514777240     4     4     1     1
 0.0002792947     4     4     1     6
 0.2264269251     4     4     2     2
 -0.0000000022     4     4     2     3
 -0.0000000022     4     4     3     2
 0.2354923967     4     4     3     3
 0.2345238938     4     4     5     5
 0.0002792947     4     4     6     1
 0.1665536991     4     4     6     6
 0.0000000002     4     5     1     1
 0.0000000003     4     5     1     6
 -0.0000000022     4     5     2     2
 0.0257280652     4     5     2     3
 -0.0166618590     4     5     3     2
 0.0000000022     4     5     3     3
 -0.2345238938     4     5     5     4
 0.0000000003     4     5     6     1
 -0.0002792947     4     6     1     4
 -0.0000000003     4     6     1     5
 -0.1665536991     4     6     6     4
 -0.0000000002     5     1     1     4
 -0.2555054549     5     1     1     5
 -0.0000000003     5     1     6     4
 0.0002790516     5     1     6     5
 0.0000000022     5     2     2     4
 -0.2354930807     5     2     2     5
 -0.0257280652     5     2     3     4
 -0.0000000022     5     2     3     5
 -0.0418464918     5     2     4     3
 0.0166618590     5     3     2     4
 -0.0000000022     5     3     2     5
 -0.0000000022     5     3     3     4
 -0.2264270930     5     3     3     5
 0.0418464918     5     3     4     2
 0.0000000002     5     4     1     1
 0.0000000003     5     4     1     6
 -0.0000000022     5     4     2     2
 -0.0166618590     5     4     2     3
 0.0257280652     5     4     3     2
 0.0000000022     5     4     3     3
 -0.2345238938     5     4     4     5
 0.0000000003     5     4     6     1
 0.2555054549     5     5     1     1
 -0.0002790516     5     5     1     6
 0.2354930807     5     5     2     2
 0.0000000022     5     5     2     3
 0.0000000022     5     5     3     2
 0.2264270930     5     5     3     3
 0.2345238938     5     5     4     4
 -0.0002790516     5     5     6     1
 0.1665535345     5     5     6     6
 -0.0000000003     5     6     1     4
 0.0002790516     5     6     1     5
 -0.1665535345     5     6     6     5
 -0.1727091490     6     1     1     6
 0.0003674253     6     1     2     2
 -0.0000000001     6     1     2     3
 -0.0000000001     6     1     3     2
 -0.0003680029     6     1     3     3
 0.0002792947     6     1     4     4
 0.0000000003     6     1     4     5
 0.0000000003     6     1     5     4
 -0.0002790516     6     1     5     5
 -0.0003674253     6     2     2     1
 -0.1700595158     6     2     2     6
 0.0000000001     6     2     3     1
 0.0000000001     6     3     2     1
 0.0003680029     6     3     3     1
 -0.1700596030     6     3     3     6
 -0.0002792947     6     4     4     1
 -0.1665536991     6     4     4     6
 -0.0000000003     6     4     5     1
 -0.0000000003     6     5     4     1
 0.0002790516     6     5     5     1
 -0.1665535345     6     5     5     6
 0.1727091490     6     6     1     1
 0.1700595158     6     6     2     2
 0.1700596030     6     6     3     3
 0.1665536991     6     6     4     4
 0.1665535345     6     6     5     5
0.0 0 0 0 0
 0.2694021880     1     1     2     2
 0.0000000009     1     1     2     3
 0.0000000009     1     1     3     2
 0.2663515079     1     1     3     3
 0.2514777240     1     1     4     4
 0.0000000002     1     1     4     5
 0.0000000002     1     1     5     4
 0.2555054549     1     1     5     5
 0.1727091490     1     1     6     6
 -0.2694021880     1     2     2     1
 -0.0003674253     1     2     2     6
 -0.0000000009     1     2     3     1
 0.0000000001     1     2     3     6
 -0.0000000009     1     3     2     1
 0.0000000001     1     3     2     6
 -0.2663515079     1     3     3     1
 0.0003680029     1     3     3     6
 -0.2514777240     1     4     4     1
 -0.0002792947     1     4     4     6
 -0.0000000002     1     4     5     1
 -0.0000000003     1     4     5     6
 -0.0000000002     1     5     4     1
 -0.0000000003     1     5     4     6
 -0.2555054549     1     5     5     1
 0.0002790516     1     5     5     6
 0.0003674253     1     6     2     2
 -0.0000000001     1     6     2     3
 -0.0000000001     1     6     3     2
 -0.0003680029     1     6     3     3
 0.0002792947     1     6     4     4
 0.0000000003     1     6     4     5
 0.0000000003     1     6     5     4
 -0.0002790516     1     6     5     5
 -0.1727091490     1     6     6     1
 -0.2694021880     2     1     1     2
 -0.0000000009     2     1     1     3
 -0.0003674253     2     1     6     2
 0.0000000001     2     1     6     3
 0.2694021880     2     2     1     1
 0.0003674253     2     2     1     6
 0.2489032135     2     2     3     3
 0.2264269251     2     2     4     4
 -0.0000000022     2     2     4     5
 -0.0000000022     2     2     5     4
 0.2354930807     2     2     5     5
 0.0003674253     2     2     6     1
 0.1700595158     2     2     6     6
 0.0000000009     2     3     1     1
 -0.0000000001     2     3     1     6
 -0.2489032135     2     3     3     2
 -0.0000000022     2     3     4     4
 0.0257280652     2     3     4     5
 -0.0166618590     2     3     5     4
 0.0000000022     2     3     5     5
 -0.0000000001     2     3     6     1
 0.0418464918     2     4     3     5
 -0.2264269251     2     4     4     2
 0.0000000022     2     4     4     3
 0.0000000022     2     4     5     2
 0.0166618590     2     4     5     3
 -0.0418464918     2     5     3     4
 0.0000000022     2     5     4     2
 -0.0257280652     2     5     4     3
 -0.2354930807     2     5     5     2
 -0.0000000022     2     5     5     3
 -0.0003674253     2     6     1     2
 0.0000000001     2     6     1     3
 -0.1700595158     2     6     6     2
 -0.0000000009     3     1     1     2
 -0.2663515079     3     1     1     3
 0.0000000001     3     1     6     2
 0.0003680029     3     1     6     3
 0.0000000009     3     2     1     1
 -0.0000000001     3     2     1     6
 -0.2489032135     3     2     2     3
 -0.0000000022     3     2     4     4
 -0.0166618590     3     2     4     5
 0.0257280652     3     2     5     4
 0.0000000022     3     2     5     5
 -0.0000000001     3     2     6     1
 0.2663515079     3     3     1     1
 -0.0003680029     3     3     1     6
 0.2489032135     3     3     2     2
 0.2354923967     3     3     4     4
 0.0000000022     3     3     4     5
 0.0000000022     3     3     5     4
 0.2264270930     3     3     5     5
 -0.0003680029     3     3     6     1
 0.1700596030     3     3     6     6
 -0.0418464918     3     4     2     5
 0.0000000022     3     4     4     2
 -0.2354923967     3     4     4     3
 -0.0257280652     3     4     5     2
 -0.0000000022     3     4     5     3
 0.0418464918     3     5     2     4
 0.0166618590     3     5     4     2
 -0.0000000022     3     5     4     3
 -0.0000000022     3     5     5     2
 -0.2264270930     3     5     5     3
 0.0000000001     3     6     1     2
 0.0003680029     3     6     1     3
 -0.1700596030     3     6     6     3
 -0.2514777240     4     1     1     4
 -0.0000000002     4     1     1     5
 -0.0002792947     4     1     6     4
 -0.0000000003     4     1     6     5
 -0.2264269251     4     2     2     4
 0.0000000022     4     2     2     5
 0.0000000022     4     2     3     4
 0.0166618590     4     2     3     5
 0.0418464918     4     2     5     3
 0.0000000022     4     3     2     4
 -0.0257280652     4     3     2     5
 -0.2354923967     4     3     3     4
 -0.0000000022     4     3     3     5
 -0.0418464918     4     3     5     2
 0.2514777240     4     4     1     1
 0.0002792947     4     4     1     6
 0.2264269251     4     4     2     2
 -0.0000000022     4     4     2     3
 -0.0000000022     4     4     3     2
 0.2354923967     4     4     3     3
 0.2345238938     4     4     5     5
 0.0002792947     4     4     6     1
 0.1665536991     4     4     6     6
 0.0000000002     4     5     1     1
 0.0000000003     4     5     1     6
 -0.0000000022     4     5     2     2
 0.0257280652     4     5     2     3
 -0.0166618590     4     5     3     2
 0.0000000022     4     5     3     3
 -0.2345238938     4     5     5     4
 0.0000000003     4     5     6     1
 -0.0002792947     4     6     1     4
 -0.0000000003     4     6     1     5
 -0.1665536991     4     6     6     4
 -0.0000000002     5     1     1     4
 -0.2555054549     5     1     1     5
 -0.0000000003     5     1     6     4
 0.0002790516     5     1     6     5
 0.0000000022     5     2     2     4
 -0.2354930807     5     2     2     5
 -0.0257280652     5     2     3     4
 -0.0000000022     5     2     3     5
 -0.0418464918     5     2     4     3
 0.0166618590     5     3     2     4
 -0.0000000022     5     3     2     5
 -0.0000000022     5     3     3     4
 -0.2264270930     5     3     3     5
 0.0418464918     5     3     4     2
 0.0000000002     5     4     1     1
 0.0000000003     5     4     1     6
 -0.0000000022     5     4     2     2
 -0.0166618590     5     4     2     3
 0.0257280652     5     4     3     2
 0.0000000022     5     4     3     3
 -0.2345238938     5     4     4     5
 0.0000000003     5     4     6     1
 0.2555054549     5     5     1     1
 -0.0002790516     5     5     1     6
 0.2354930807     5     5     2     2
 0.0000000022     5     5     2     3
 0.0000000022     5     5     3     2
 0.2264270930     5     5     3     3
 0.2345238938     5     5     4     4
 -0.0002790516     5     5     6     1
 0.1665535345     5     5     6     6
 -0.0000000003     5     6     1     4
 0.0002790516     5     6     1     5
 -0.1665535345     5     6     6     5
 -0.1727091490     6     1     1     6
 0.0003674253     6     1     2     2
 -0.0000000001     6     1     2     3
 -0.0000000001     6     1     3     2
 -0.0003680029     6     1     3     3
 0.0002792947     6     1     4     4
 0.0000000003     6     1     4     5
 0.0000000003     6     1     5     4
 -0.0002790516     6     1     5     5
 -0.0003674253     6     2     2     1
 -0.1700595158     6     2     2     6
 0.0000000001     6     2     3     1
 0.0000000001     6     3     2     1
 0.0003680029     6     3     3     1
 -0.1700596030     6     3     3     6
 -0.0002792947     6     4     4     1
 -0.1665536991     6     4     4     6
 -0.0000000003     6     4     5     1
 -0.0000000003     6     5     4     1
 0.0002790516     6     5     5     1
 -0.1665535345     6     5     5     6
 0.1727091490     6     6     1     1
 0.1700595158     6     6     2     2
 0.1700596030     6     6     3     3
 0.1665536991     6     6     4     4
 0.1665535345     6     6     5     5
0.0 0 0 0 0
 0.2908715761     1     1     1     1
 0.0013199288     1     1     1     6
 0.2735813343     1     1     2     2
 0.0000000006     1     1     2     3
 0.0000000006     1     1     3     2
 0.2715555827     1     1     3     3
 0.2556495044     1     1     4     4
 0.0000000003     1     1     4     5
 0.0000000003     1     1     5     4
 0.2615585109     1     1     5     5
 0.0013199288     1     1     6     1
 0.1767398558     1     1     6     6
 0.0021582088     1     2     1     2
 -0.0000000004     1     2     1     3
 0.0041791463     1     2     2     1
 -0.0001416600     1     2     2     6
 -0.0000000003     1     2     3     1
 -0.0000544521     1     2     6     2
 -0.0000000004     1     3     1     2
 0.0036221264     1     3     1     3
 -0.0000000003     1     3     2     1
 0.0052040748     1     3     3     1
 0.0001417188     1     3     3     6
 0.0000543029     1     3     6     3
 0.0037741891     1     4     1     4
 0.0000000001     1     4     1     5
 0.0041717804     1     4     4     1
 0.0006459677     1     4     4     6
 0.0000000001     1     4     5     1
 0.0000000005     1     4     5     6
 0.0006025763     1     4     6     4
 0.0000000005     1     4     6     5
 0.0000000001     1     5     1     4
 0.0048802332     1     5     1     5
 0.0000000001     1     5     4     1
 0.0000000005     1     5     4     6
 0.0060530560     1     5     5     1
 -0.0006460389     1     5     5     6
 0.0000000005     1     5     6     4
 -0.0005876885     1     5     6     5
 0.0013199288     1     6     1     1
 0.0047625569     1     6     1     6
 0.0002257653     1     6     2     2
 -0.0000000001     1     6     2     3
 -0.0000000001     1     6     3     2
 -0.0002262841     1     6     3     3
 0.0009252624     1     6     4     4
 0.0000000008     1     6     4     5
 0.0000000008     1     6     5     4
 -0.0009250905     1     6     5     5
 0.0040307068     1     6     6     1
 0.0000063223     1     6     6     6
 0.0041791463     2     1     1     2
 -0.0000000003     2     1     1     3
 0.0021582088     2     1     2     1
 -0.0000544521     2     1     2     6
 -0.0000000004     2     1     3     1
 -0.0001416600     2     1     6     2
 0.2735813343     2     2     1     1
 0.0002257653     2     2     1     6
 0.3112731820     2     2     2     2
 0.2709577683     2     2     3     3
 0.2632074412     2     2     4     4
 -0.0000000061     2     2     4     5
 -0.0000000061     2     2     5     4
 0.2879163647     2     2     5     5
 0.0002257653     2     2     6     1
 0.1714798641     2     2     6     6
 0.0000000006     2     3     1     1
 -0.0000000001     2     3     1     6
 0.0182608778     2     3     2     3
 0.0220545548     2     3     3     2
 -0.0000000061     2     3     4     4
 0.0134703112     2     3     4     5
 0.0112387378     2     3     5     4
 0.0000000061     2     3     5     5
 -0.0000000001     2     3     6     1
 0.0313073418     2     4     2     4
 -0.0000000059     2     4     2     5
 -0.0000000059     2     4     3     4
 0.0327425113     2     4     3     5
 0.0367805161     2     4     4     2
 -0.0000000039     2     4     4     3
 -0.0000000039     2     4     5     2
 0.0279005968     2     4     5     3
 -0.0000000059     2     5     2     4
 0.0549501993     2     5     2     5
 -0.0091039805     2     5     3     4
 0.0000000059     2     5     3     5
 -0.0000000039     2     5     4     2
 -0.0122577540     2     5     4     3
 0.0524232840     2     5     5     2
 0.0000000039     2     5     5     3
 -0.0001416600     2     6     1     2
 -0.0000544521     2     6     2     1
 0.0014320916     2     6     2     6
 0.0014203483     2     6     6     2
 -0.0000000003     3     1     1     2
 0.0052040748     3     1     1     3
 -0.0000000004     3     1     2     1
 0.0036221264     3     1     3     1
 0.0000543029     3     1     3     6
 0.0001417188     3     1     6     3
 0.0000000006     3     2     1     1
 -0.0000000001     3     2     1     6
 0.0220545548     3     2     2     3
 0.0182608778     3     2     3     2
 -0.0000000061     3     2     4     4
 0.0112387378     3     2     4     5
 0.0134703112     3     2     5     4
 0.0000000061     3     2     5     5
 -0.0000000001     3     2     6     1
 0.2715555827     3     3     1     1
 -0.0002262841     3     3     1     6
 0.2709577683     3     3     2     2
 0.3112731772     3     3     3     3
 0.2879156579     3     3     4     4
 0.0000000061     3     3     4     5
 0.0000000061     3     3     5     4
 0.2632075526     3     3     5     5
 -0.0002262841     3     3     6     1
 0.1714799681     3     3     6     6
 -0.0000000059     3     4     2     4
 -0.0091039805     3     4     2     5
 0.0549504541     3     4     3     4
 0.0000000059     3     4     3     5
 -0.0000000039     3     4     4     2
 0.0524232612     3     4     4     3
 -0.0122577540     3     4     5     2
 0.0000000039     3     4     5     3
 0.0327425113     3     5     2     4
 0.0000000059     3     5     2     5
 0.0000000059     3     5     3     4
 0.0313181688     3     5     3     5
 0.0279005968     3     5     4     2
 0.0000000039     3     5     4     3
 0.0000000039     3     5     5     2
 0.0367804596     3     5     5     3
 0.0001417188     3     6     1     3
 0.0000543029     3     6     3     1
 0.0014377648     3     6     3     6
 0.0014203651     3     6     6     3
 0.0041717804     4     1     1     4
 0.0000000001     4     1     1     5
 0.0037741891     4     1     4     1
 0.0006025763     4     1     4     6
 0.0000000001     4     1     5     1
 0.0000000005     4     1     5     6
 0.0006459677     4     1     6     4
 0.0000000005     4     1     6     5
 0.0367805161     4     2     2     4
 -0.0000000039     4     2     2     5
 -0.0000000039     4     2     3     4
 0.0279005968     4     2     3     5
 0.0313073418     4     2     4     2
 -0.0000000059     4     2     4     3
 -0.0000000059     4     2     5     2
 0.0327425113     4     2     5     3
 -0.0000000039     4     3     2     4
 -0.0122577540     4     3     2     5
 0.0524232612     4     3     3     4
 0.0000000039     4     3     3     5
 -0.0000000059     4     3     4     2
 0.0549504541     4     3     4     3
 -0.0091039805     4     3     5     2
 0.0000000059     4     3     5     3
 0.2556495044     4     4     1     1
 0.0009252624     4     4     1     6
 0.2632074412     4     4     2     2
 -0.0000000061     4     4     2     3
 -0.0000000061     4     4     3     2
 0.2879156579     4     4     3     3
 0.2674106799     4     4     4     4
 0.2464297716     4     4     5     5
 0.0009252624     4     4     6     1
 0.1680471610     4     4     6     6
 0.0000000003     4     5     1     1
 0.0000000008     4     5     1     6
 -0.0000000061     4     5     2     2
 0.0134703112     4     5     2     3
 0.0112387378     4     5     3     2
 0.0000000061     4     5     3     3
 0.0090823883     4     5     4     5
 0.0119058778     4     5     5     4
 0.0000000008     4     5     6     1
 0.0006459677     4     6     1     4
 0.0000000005     4     6     1     5
 0.0006025763     4     6     4     1
 0.0011505165     4     6     4     6
 0.0000000005     4     6     5     1
 0.0014934619     4     6     6     4
 0.0000000001     5     1     1     4
 0.0060530560     5     1     1     5
 0.0000000001     5     1     4     1
 0.0000000005     5     1     4     6
 0.0048802332     5     1     5     1
 -0.0005876885     5     1     5     6
 0.0000000005     5     1     6     4
 -0.0006460389     5     1     6     5
 -0.0000000039     5     2     2     4
 0.0524232840     5     2     2     5
 -0.0122577540     5     2     3     4
 0.0000000039     5     2     3     5
 -0.0000000059     5     2     4     2
 -0.0091039805     5     2     4     3
 0.0549501993     5     2     5     2
 0.0000000059     5     2     5     3
 0.0279005968     5     3     2     4
 0.0000000039     5     3     2     5
 0.0000000039     5     3     3     4
 0.0367804596     5     3     3     5
 0.0327425113     5     3     4     2
 0.0000000059     5     3     4     3
 0.0000000059     5     3     5     2
 0.0313181688     5     3     5     3
 0.0000000003     5     4     1     1
 0.0000000008     5     4     1     6
 -0.0000000061     5     4     2     2
 0.0112387378     5     4     2     3
 0.0134703112     5     4     3     2
 0.0000000061     5     4     3     3
 0.0119058778     5     4     4     5
 0.0090823883     5     4     5     4
 0.0000000008     5     4     6     1
 0.2615585109     5     5     1     1
 -0.0009250905     5     5     1     6
 0.2879163647     5     5     2     2
 0.0000000061     5     5     2     3
 0.0000000061     5     5     3     2
 0.2632075526     5     5     3     3
 0.2464297716     5     5     4     4
 0.2674271615     5     5     5     5
 -0.0009250905     5     5     6     1
 0.1680469740     5     5     6     6
 0.0000000005     5     6     1     4
 -0.0006460389     5     6     1     5
 0.0000000005     5     6     4     1
 -0.0005876885     5     6     5     1
 0.0011588009     5     6     5     6
 0.0014934395     5     6     6     5
 0.0013199288     6     1     1     1
 0.0040307068     6     1     1     6
 0.0002257653     6     1     2     2
 -0.0000000001     6     1     2     3
 -0.0000000001     6     1     3     2
 -0.0002262841     6     1     3     3
 0.0009252624     6     1     4     4
 0.0000000008     6     1     4     5
 0.0000000008     6     1     5     4
 -0.0009250905     6     1     5     5
 0.0047625569     6     1     6     1
 0.0000063223     6     1     6     6
 -0.0000544521     6     2     1     2
 -0.0001416600     6     2     2     1
 0.0014203483     6     2     2     6
 0.0014320916     6     2     6     2
 0.0000543029     6     3     1     3
 0.0001417188     6     3     3     1
 0.0014203651     6     3     3     6
 0.0014377648     6     3     6     3
 0.0006025763     6     4     1     4
 0.0000000005     6     4     1     5
 0.0006459677     6     4     4     1
 0.0014934619     6     4     4     6
 0.0000000005     6     4     5     1
 0.0011505165     6     4     6     4
 0.0000000005     6     5     1     4
 -0.0005876885     6     5     1     5
 0.0000000005     6     5     4     1
 -0.0006460389     6     5     5     1
 0.0014934395     6     5     5     6
 0.0011588009     6     5     6     5
 0.1767398558     6     6     1     1
 0.0000063223     6     6     1     6
 0.1714798641     6     6     2     2
 0.1714799681     6     6     3     3
 0.1680471610     6     6     4     4
 0.1680469740     6     6     5     5
 0.0000063223     6     6     6     1
 0.1555146256     6     6     6     6
0.0 0 0 0 0
 -1.9220523017     1     1     0     0
 -0.0013253416     1     6     0     0
 -1.7797790252     2     2     0     0
 -0.0000000015     2     3     0     0
 -0.0000000015     3     2     0     0
 -1.7747017681     3     3     0     0
 -1.3524346017     4     4     0     0
 -0.0000000005     4     5     0     0
 -0.0000000005     5     4     0     0
 -1.3623845789     5     5     0     0
 -0.0013253416     6     1     0     0
 -0.8777312124     6     6     0     0
0.0 0 0 0 0
 -1.9220523017     1     1     0     0
 -0.0013253416     1     6     0     0
 -1.7797790252     2     2     0     0
 -0.0000000015     2     3     0     0
 -0.0000000015     3     2     0     0
 -1.7747017681     3     3     0     0
 -1.3524346017     4     4     0     0
 -0.0000000005     4     5     0     0
 -0.0000000005     5     4     0     0
 -1.3623845789     5     5     0     0
 -0.0013253416     6     1     0     0
 -0.8777312124     6     6     0     0
-224.9317281895 0 0 0 0
