&FCI NORB= 10,NELEC= 14,MS2=0,
 ORBSYM=1,1,1,1,1,1,1,1,1,1
 ISYM=1,
&END
 0.2327942628     1     1     2     2
 0.2705895995     1     1     3     3
 -0.0000000020     1     1     3     8
 0.0147835353     1     1     3     9
 0.2304069782     1     1     4     4
 -0.0000000118     1     1     4     5
 0.0000000045     1     1     4    10
 -0.0000000118     1     1     5     4
 0.2256580320     1     1     5     5
 0.0017191334     1     1     5    10
 0.2813459442     1     1     6     6
 -0.0000000019     1     1     6     7
 -0.0000000019     1     1     7     6
 0.2538035575     1     1     7     7
 -0.0000000020     1     1     8     3
 0.2477357909     1     1     8     8
 -0.0000000001     1     1     8     9
 0.0147835353     1     1     9     3
 -0.0000000001     1     1     9     8
 0.2669722797     1     1     9     9
 0.0000000045     1     1    10     4
 0.0017191334     1     1    10     5
 0.1882592373     1     1    10    10
 -0.2327942628     1     2     2     1
 0.0147835204     1     2     3     8
 0.0000000020     1     2     3     9
 -0.0000000118     1     2     4     4
 0.0207869880     1     2     4     5
 -0.0017191499     1     2     4    10
 -0.0255357614     1     2     5     4
 0.0000000118     1     2     5     5
 0.0000000045     1     2     5    10
 0.0000000019     1     2     6     6
 0.0143619230     1     2     6     7
 0.0131804408     1     2     7     6
 -0.0000000019     1     2     7     7
 0.0147835193     1     2     8     3
 0.0000000001     1     2     8     8
 -0.0102004462     1     2     8     9
 0.0000000020     1     2     9     3
 -0.0090360328     1     2     9     8
 -0.0000000001     1     2     9     9
 -0.0017191411     1     2    10     4
 0.0000000045     1     2    10     5
 0.0000000009     1     3     2     8
 -0.2705895995     1     3     3     1
 0.0000000012     1     3     4     6
 -0.0004711357     1     3     4     7
 0.0004711367     1     3     5     6
 0.0000000012     1     3     5     7
 -0.0000001099     1     3     6     4
 -0.0430168991     1     3     6     5
 0.0020271107     1     3     6    10
 0.0430168388     1     3     7     4
 -0.0000001099     1     3     7     5
 -0.0000000002     1     3     7    10
 0.0000000020     1     3     8     1
 -0.0147835193     1     3     8     2
 -0.0147835353     1     3     9     1
 -0.0000000020     1     3     9     2
 0.0006480530     1     3    10     6
 -0.0000000001     1     3    10     7
 0.0461479675     1     4     2     5
 -0.0000000089     1     4     2    10
 0.0000001111     1     4     3     6
 -0.0434634405     1     4     3     7
 -0.2304069782     1     4     4     1
 0.0000000118     1     4     4     2
 0.0000000118     1     4     5     1
 0.0255357614     1     4     5     2
 0.0000001099     1     4     6     3
 -0.0265104877     1     4     6     8
 0.0000000906     1     4     6     9
 -0.0430168388     1     4     7     3
 0.0000000445     1     4     7     8
 0.0261851734     1     4     7     9
 -0.0254091220     1     4     8     6
 0.0000000432     1     4     8     7
 0.0000000879     1     4     9     6
 0.0257740864     1     4     9     7
 -0.0000000045     1     4    10     1
 0.0017191411     1     4    10     2
 -0.0461479675     1     5     2     4
 0.0434635014     1     5     3     6
 0.0000001111     1     5     3     7
 0.0000000118     1     5     4     1
 -0.0207869880     1     5     4     2
 -0.2256580320     1     5     5     1
 -0.0000000118     1     5     5     2
 0.0430168991     1     5     6     3
 0.0000000672     1     5     6     8
 0.0355744097     1     5     6     9
 0.0000001099     1     5     7     3
 0.0171213163     1     5     7     8
 -0.0000000678     1     5     7     9
 0.0000000644     1     5     8     6
 0.0166579854     1     5     8     7
 0.0345252829     1     5     9     6
 -0.0000000667     1     5     9     7
 -0.0017191334     1     5    10     1
 -0.0000000045     1     5    10     2
 0.0016726406     1     6     2     7
 -0.0000001111     1     6     3     4
 -0.0434635014     1     6     3     5
 0.0014412559     1     6     3    10
 -0.0000000012     1     6     4     3
 -0.0007378374     1     6     4     8
 0.0000000014     1     6     4     9
 -0.0004711367     1     6     5     3
 0.0000000019     1     6     5     8
 0.0005819127     1     6     5     9
 -0.2813459442     1     6     6     1
 -0.0000000019     1     6     6     2
 0.0000000019     1     6     7     1
 -0.0131804408     1     6     7     2
 0.0254091220     1     6     8     4
 -0.0000000644     1     6     8     5
 -0.0000000001     1     6     8    10
 -0.0000000879     1     6     9     4
 -0.0345252829     1     6     9     5
 0.0005568104     1     6     9    10
 -0.0006480530     1     6    10     3
 0.0002511033     1     6    10     9
 -0.0016726406     1     7     2     6
 0.0434634405     1     7     3     4
 -0.0000001111     1     7     3     5
 -0.0000000001     1     7     3    10
 0.0004711357     1     7     4     3
 0.0000000006     1     7     4     8
 0.0000666060     1     7     4     9
 -0.0000000012     1     7     5     3
 0.0002225341     1     7     5     8
 -0.0000000002     1     7     5     9
 0.0000000019     1     7     6     1
 -0.0143619230     1     7     6     2
 -0.2538035575     1     7     7     1
 0.0000000019     1     7     7     2
 -0.0000000432     1     7     8     4
 -0.0166579854     1     7     8     5
 0.0005568063     1     7     8    10
 -0.0257740864     1     7     9     4
 0.0000000667     1     7     9     5
 0.0000000001     1     7     9    10
 0.0000000001     1     7    10     3
 0.0002511019     1     7    10     8
 -0.0000000009     1     8     2     3
 -0.0008908282     1     8     2     9
 0.0000000020     1     8     3     1
 -0.0147835204     1     8     3     2
 0.0007378374     1     8     4     6
 -0.0000000006     1     8     4     7
 -0.0000000019     1     8     5     6
 -0.0002225341     1     8     5     7
 0.0265104877     1     8     6     4
 -0.0000000672     1     8     6     5
 -0.0000000445     1     8     7     4
 -0.0171213163     1     8     7     5
 -0.0000614542     1     8     7    10
 -0.2477357909     1     8     8     1
 -0.0000000001     1     8     8     2
 0.0000000001     1     8     9     1
 0.0090360328     1     8     9     2
 -0.0002511019     1     8    10     7
 0.0008908282     1     9     2     8
 -0.0147835353     1     9     3     1
 -0.0000000020     1     9     3     2
 -0.0000000014     1     9     4     6
 -0.0000666060     1     9     4     7
 -0.0005819127     1     9     5     6
 0.0000000002     1     9     5     7
 -0.0000000906     1     9     6     4
 -0.0355744097     1     9     6     5
 -0.0000614528     1     9     6    10
 -0.0261851734     1     9     7     4
 0.0000000678     1     9     7     5
 0.0000000001     1     9     8     1
 0.0102004462     1     9     8     2
 -0.2669722797     1     9     9     1
 0.0000000001     1     9     9     2
 -0.0002511033     1     9    10     6
 0.0000000089     1    10     2     4
 -0.0014412559     1    10     3     6
 0.0000000001     1    10     3     7
 -0.0000000045     1    10     4     1
 0.0017191499     1    10     4     2
 -0.0017191334     1    10     5     1
 -0.0000000045     1    10     5     2
 -0.0020271107     1    10     6     3
 0.0000614528     1    10     6     9
 0.0000000002     1    10     7     3
 0.0000614542     1    10     7     8
 0.0000000001     1    10     8     6
 -0.0005568063     1    10     8     7
 -0.0005568104     1    10     9     6
 -0.0000000001     1    10     9     7
 -0.1882592373     1    10    10     1
 -0.2327942628     2     1     1     2
 0.0147835193     2     1     3     8
 0.0000000020     2     1     3     9
 -0.0000000118     2     1     4     4
 -0.0255357614     2     1     4     5
 -0.0017191411     2     1     4    10
 0.0207869880     2     1     5     4
 0.0000000118     2     1     5     5
 0.0000000045     2     1     5    10
 0.0000000019     2     1     6     6
 0.0131804408     2     1     6     7
 0.0143619230     2     1     7     6
 -0.0000000019     2     1     7     7
 0.0147835204     2     1     8     3
 0.0000000001     2     1     8     8
 -0.0090360328     2     1     8     9
 0.0000000020     2     1     9     3
 -0.0102004462     2     1     9     8
 -0.0000000001     2     1     9     9
 -0.0017191499     2     1    10     4
 0.0000000045     2     1    10     5
 0.2327942628     2     2     1     1
 0.2705896202     2     2     3     3
 0.0000000020     2     2     3     8
 -0.0147835115     2     2     3     9
 0.2256580119     2     2     4     4
 0.0000000118     2     2     4     5
 -0.0000000045     2     2     4    10
 0.0000000118     2     2     5     4
 0.2304070251     2     2     5     5
 -0.0017191596     2     2     5    10
 0.2538036123     2     2     6     6
 0.0000000019     2     2     6     7
 0.0000000019     2     2     7     6
 0.2813459413     2     2     7     7
 0.0000000020     2     2     8     3
 0.2669722956     2     2     8     8
 0.0000000001     2     2     8     9
 -0.0147835115     2     2     9     3
 0.0000000001     2     2     9     8
 0.2477358185     2     2     9     9
 -0.0000000045     2     2    10     4
 -0.0017191596     2     2    10     5
 0.1882592201     2     2    10    10
 -0.0000000009     2     3     1     8
 -0.2705896202     2     3     3     2
 -0.0004711358     2     3     4     6
 -0.0000000012     2     3     4     7
 0.0000000012     2     3     5     6
 -0.0004711357     2     3     5     7
 0.0430169400     2     3     6     4
 -0.0000001099     2     3     6     5
 0.0000000002     2     3     6    10
 0.0000001099     2     3     7     4
 0.0430168023     2     3     7     5
 0.0020270965     2     3     7    10
 -0.0147835204     2     3     8     1
 -0.0000000020     2     3     8     2
 -0.0000000020     2     3     9     1
 0.0147835115     2     3     9     2
 0.0000000001     2     3    10     6
 0.0006480533     2     3    10     7
 -0.0461479675     2     4     1     5
 0.0000000089     2     4     1    10
 -0.0434635415     2     4     3     6
 -0.0000001111     2     4     3     7
 0.0000000118     2     4     4     1
 -0.2256580119     2     4     4     2
 -0.0207869880     2     4     5     1
 -0.0000000118     2     4     5     2
 -0.0430169400     2     4     6     3
 -0.0000000678     2     4     6     8
 -0.0171213331     2     4     6     9
 -0.0000001099     2     4     7     3
 -0.0355744353     2     4     7     8
 0.0000000672     2     4     7     9
 -0.0000000667     2     4     8     6
 -0.0345253097     2     4     8     7
 -0.0166580020     2     4     9     6
 0.0000000644     2     4     9     7
 0.0017191499     2     4    10     1
 0.0000000045     2     4    10     2
 0.0461479675     2     5     1     4
 0.0000001111     2     5     3     6
 -0.0434634044     2     5     3     7
 0.0255357614     2     5     4     1
 -0.0000000118     2     5     4     2
 -0.0000000118     2     5     5     1
 -0.2304070251     2     5     5     2
 0.0000001099     2     5     6     3
 -0.0261851570     2     5     6     8
 0.0000000445     2     5     6     9
 -0.0430168023     2     5     7     3
 0.0000000906     2     5     7     8
 0.0265104650     2     5     7     9
 -0.0257740700     2     5     8     6
 0.0000000879     2     5     8     7
 0.0000000432     2     5     9     6
 0.0254090994     2     5     9     7
 -0.0000000045     2     5    10     1
 0.0017191596     2     5    10     2
 -0.0016726406     2     6     1     7
 0.0434635415     2     6     3     4
 -0.0000001111     2     6     3     5
 0.0000000001     2     6     3    10
 0.0004711358     2     6     4     3
 -0.0000000002     2     6     4     8
 -0.0002225342     2     6     4     9
 -0.0000000012     2     6     5     3
 -0.0000666065     2     6     5     8
 0.0000000006     2     6     5     9
 -0.0000000019     2     6     6     1
 -0.2538036123     2     6     6     2
 -0.0143619230     2     6     7     1
 -0.0000000019     2     6     7     2
 0.0000000667     2     6     8     4
 0.0257740700     2     6     8     5
 0.0005567985     2     6     8    10
 0.0166580020     2     6     9     4
 -0.0000000432     2     6     9     5
 0.0000000001     2     6     9    10
 -0.0000000001     2     6    10     3
 0.0002511019     2     6    10     8
 0.0016726406     2     7     1     6
 0.0000001111     2     7     3     4
 0.0434634044     2     7     3     5
 0.0014412413     2     7     3    10
 0.0000000012     2     7     4     3
 -0.0005819118     2     7     4     8
 0.0000000019     2     7     4     9
 0.0004711357     2     7     5     3
 0.0000000014     2     7     5     8
 0.0007378377     2     7     5     9
 -0.0131804408     2     7     6     1
 -0.0000000019     2     7     6     2
 0.0000000019     2     7     7     1
 -0.2813459413     2     7     7     2
 0.0345253097     2     7     8     4
 -0.0000000879     2     7     8     5
 0.0000000001     2     7     8    10
 -0.0000000644     2     7     9     4
 -0.0254090994     2     7     9     5
 -0.0005568003     2     7     9    10
 -0.0006480533     2     7    10     3
 -0.0002511010     2     7    10     9
 0.0000000009     2     8     1     3
 0.0008908282     2     8     1     9
 -0.0147835193     2     8     3     1
 -0.0000000020     2     8     3     2
 0.0000000002     2     8     4     6
 0.0005819118     2     8     4     7
 0.0000666065     2     8     5     6
 -0.0000000014     2     8     5     7
 0.0000000678     2     8     6     4
 0.0261851570     2     8     6     5
 -0.0000614613     2     8     6    10
 0.0355744353     2     8     7     4
 -0.0000000906     2     8     7     5
 -0.0000000001     2     8     8     1
 -0.2669722956     2     8     8     2
 0.0102004462     2     8     9     1
 -0.0000000001     2     8     9     2
 -0.0002511019     2     8    10     6
 -0.0008908282     2     9     1     8
 -0.0000000020     2     9     3     1
 0.0147835115     2     9     3     2
 0.0002225342     2     9     4     6
 -0.0000000019     2     9     4     7
 -0.0000000006     2     9     5     6
 -0.0007378377     2     9     5     7
 0.0171213331     2     9     6     4
 -0.0000000445     2     9     6     5
 -0.0000000672     2     9     7     4
 -0.0265104650     2     9     7     5
 0.0000614594     2     9     7    10
 0.0090360328     2     9     8     1
 -0.0000000001     2     9     8     2
 0.0000000001     2     9     9     1
 -0.2477358185     2     9     9     2
 0.0002511010     2     9    10     7
 -0.0000000089     2    10     1     4
 -0.0000000001     2    10     3     6
 -0.0014412413     2    10     3     7
 0.0017191411     2    10     4     1
 0.0000000045     2    10     4     2
 -0.0000000045     2    10     5     1
 0.0017191596     2    10     5     2
 -0.0000000002     2    10     6     3
 0.0000614613     2    10     6     8
 -0.0020270965     2    10     7     3
 -0.0000614594     2    10     7     9
 -0.0005567985     2    10     8     6
 -0.0000000001     2    10     8     7
 -0.0000000001     2    10     9     6
 0.0005568003     2    10     9     7
 -0.1882592201     2    10    10     2
 -0.2705895995     3     1     1     3
 0.0000000020     3     1     1     8
 -0.0147835353     3     1     1     9
 -0.0147835193     3     1     2     8
 -0.0000000020     3     1     2     9
 -0.0000001099     3     1     4     6
 0.0430168388     3     1     4     7
 -0.0430168991     3     1     5     6
 -0.0000001099     3     1     5     7
 0.0000000012     3     1     6     4
 0.0004711367     3     1     6     5
 0.0006480530     3     1     6    10
 -0.0004711357     3     1     7     4
 0.0000000012     3     1     7     5
 -0.0000000001     3     1     7    10
 0.0000000009     3     1     8     2
 0.0020271107     3     1    10     6
 -0.0000000002     3     1    10     7
 -0.0147835204     3     2     1     8
 -0.0000000020     3     2     1     9
 -0.2705896202     3     2     2     3
 -0.0000000020     3     2     2     8
 0.0147835115     3     2     2     9
 0.0430169400     3     2     4     6
 0.0000001099     3     2     4     7
 -0.0000001099     3     2     5     6
 0.0430168023     3     2     5     7
 -0.0004711358     3     2     6     4
 0.0000000012     3     2     6     5
 0.0000000001     3     2     6    10
 -0.0000000012     3     2     7     4
 -0.0004711357     3     2     7     5
 0.0006480533     3     2     7    10
 -0.0000000009     3     2     8     1
 0.0000000002     3     2    10     6
 0.0020270965     3     2    10     7
 0.2705895995     3     3     1     1
 0.2705896202     3     3     2     2
 0.2704928247     3     3     4     4
 0.2704928087     3     3     5     5
 -0.0000000205     3     3     5    10
 0.2144096900     3     3     6     6
 0.2144097197     3     3     7     7
 0.2520778764     3     3     8     8
 0.2520778689     3     3     9     9
 -0.0000000205     3     3    10     5
 0.1880259514     3     3    10    10
 -0.0000001111     3     4     1     6
 0.0434634405     3     4     1     7
 0.0434635415     3     4     2     6
 0.0000001111     3     4     2     7
 -0.2704928247     3     4     4     3
 -0.0000000121     3     4     4     8
 0.0023453878     3     4     4     9
 -0.0023453866     3     4     5     8
 -0.0000000121     3     4     5     9
 -0.0000000012     3     4     6     1
 0.0004711358     3     4     6     2
 0.0004711357     3     4     7     1
 0.0000000012     3     4     7     2
 -0.0000000001     3     4     8     5
 -0.0005695220     3     4     8    10
 0.0000000014     3     4     9    10
 0.0012098939     3     4    10     8
 -0.0000000031     3     4    10     9
 -0.0434635014     3     5     1     6
 -0.0000001111     3     5     1     7
 -0.0000001111     3     5     2     6
 0.0434634044     3     5     2     7
 -0.0023453863     3     5     4     8
 -0.0000000121     3     5     4     9
 -0.2704928087     3     5     5     3
 0.0000000121     3     5     5     8
 -0.0023453948     3     5     5     9
 -0.0004711367     3     5     6     1
 -0.0000000012     3     5     6     2
 -0.0000000012     3     5     7     1
 0.0004711357     3     5     7     2
 0.0000000001     3     5     8     4
 0.0000000014     3     5     8    10
 0.0005695230     3     5     9    10
 0.0000000205     3     5    10     3
 -0.0000000031     3     5    10     8
 -0.0012098935     3     5    10     9
 0.0000001111     3     6     1     4
 0.0434635014     3     6     1     5
 -0.0014412559     3     6     1    10
 -0.0434635415     3     6     2     4
 0.0000001111     3     6     2     5
 -0.0000000001     3     6     2    10
 0.0000001099     3     6     4     1
 -0.0430169400     3     6     4     2
 0.0430168991     3     6     5     1
 0.0000001099     3     6     5     2
 -0.2144096900     3     6     6     3
 0.0000000002     3     6     6     8
 0.0263713158     3     6     6     9
 0.0263713189     3     6     7     8
 -0.0000000002     3     6     7     9
 0.0000000143     3     6     8     7
 -0.0020271107     3     6    10     1
 -0.0000000002     3     6    10     2
 -0.0434634405     3     7     1     4
 0.0000001111     3     7     1     5
 0.0000000001     3     7     1    10
 -0.0000001111     3     7     2     4
 -0.0434634044     3     7     2     5
 -0.0014412413     3     7     2    10
 -0.0430168388     3     7     4     1
 -0.0000001099     3     7     4     2
 0.0000001099     3     7     5     1
 -0.0430168023     3     7     5     2
 0.0263713052     3     7     6     8
 -0.0000000002     3     7     6     9
 -0.2144097197     3     7     7     3
 -0.0000000002     3     7     7     8
 -0.0263713022     3     7     7     9
 -0.0000000143     3     7     8     6
 0.0000000002     3     7    10     1
 -0.0020270965     3     7    10     2
 -0.0000000020     3     8     1     1
 0.0147835204     3     8     1     2
 0.0147835193     3     8     2     1
 0.0000000020     3     8     2     2
 0.0000000121     3     8     4     4
 0.0023453863     3     8     4     5
 -0.0020136486     3     8     4    10
 0.0023453866     3     8     5     4
 -0.0000000121     3     8     5     5
 0.0000000050     3     8     5    10
 -0.0000000002     3     8     6     6
 -0.0263713052     3     8     6     7
 -0.0263713189     3     8     7     6
 0.0000000002     3     8     7     7
 -0.2520778764     3     8     8     3
 0.0000000001     3     8     8     9
 -0.0012098939     3     8    10     4
 0.0000000031     3     8    10     5
 0.0147835353     3     9     1     1
 0.0000000020     3     9     1     2
 0.0000000020     3     9     2     1
 -0.0147835115     3     9     2     2
 -0.0023453878     3     9     4     4
 0.0000000121     3     9     4     5
 0.0000000050     3     9     4    10
 0.0000000121     3     9     5     4
 0.0023453948     3     9     5     5
 0.0020136491     3     9     5    10
 -0.0263713158     3     9     6     6
 0.0000000002     3     9     6     7
 0.0000000002     3     9     7     6
 0.0263713022     3     9     7     7
 -0.0000000001     3     9     8     8
 -0.2520778689     3     9     9     3
 0.0000000031     3     9    10     4
 0.0012098935     3     9    10     5
 0.0000000099     3     9    10    10
 0.0014412559     3    10     1     6
 -0.0000000001     3    10     1     7
 0.0000000001     3    10     2     6
 0.0014412413     3    10     2     7
 0.0020136486     3    10     4     8
 -0.0000000050     3    10     4     9
 0.0000000205     3    10     5     3
 -0.0000000050     3    10     5     8
 -0.0020136491     3    10     5     9
 -0.0006480530     3    10     6     1
 -0.0000000001     3    10     6     2
 0.0000000001     3    10     7     1
 -0.0006480533     3    10     7     2
 0.0005695220     3    10     8     4
 -0.0000000014     3    10     8     5
 -0.0000000014     3    10     9     4
 -0.0005695230     3    10     9     5
 -0.1880259514     3    10    10     3
 -0.0000000099     3    10    10     9
 -0.2304069782     4     1     1     4
 0.0000000118     4     1     1     5
 -0.0000000045     4     1     1    10
 0.0000000118     4     1     2     4
 0.0255357614     4     1     2     5
 0.0017191411     4     1     2    10
 0.0000001099     4     1     3     6
 -0.0430168388     4     1     3     7
 0.0461479675     4     1     5     2
 0.0000001111     4     1     6     3
 -0.0254091220     4     1     6     8
 0.0000000879     4     1     6     9
 -0.0434634405     4     1     7     3
 0.0000000432     4     1     7     8
 0.0257740864     4     1     7     9
 -0.0265104877     4     1     8     6
 0.0000000445     4     1     8     7
 0.0000000906     4     1     9     6
 0.0261851734     4     1     9     7
 -0.0000000089     4     1    10     2
 0.0000000118     4     2     1     4
 -0.0207869880     4     2     1     5
 0.0017191499     4     2     1    10
 -0.2256580119     4     2     2     4
 -0.0000000118     4     2     2     5
 0.0000000045     4     2     2    10
 -0.0430169400     4     2     3     6
 -0.0000001099     4     2     3     7
 -0.0461479675     4     2     5     1
 -0.0434635415     4     2     6     3
 -0.0000000667     4     2     6     8
 -0.0166580020     4     2     6     9
 -0.0000001111     4     2     7     3
 -0.0345253097     4     2     7     8
 0.0000000644     4     2     7     9
 -0.0000000678     4     2     8     6
 -0.0355744353     4     2     8     7
 -0.0171213331     4     2     9     6
 0.0000000672     4     2     9     7
 0.0000000089     4     2    10     1
 -0.0000000012     4     3     1     6
 0.0004711357     4     3     1     7
 0.0004711358     4     3     2     6
 0.0000000012     4     3     2     7
 -0.2704928247     4     3     3     4
 -0.0000000001     4     3     5     8
 -0.0000001111     4     3     6     1
 0.0434635415     4     3     6     2
 0.0434634405     4     3     7     1
 0.0000001111     4     3     7     2
 -0.0000000121     4     3     8     4
 -0.0023453866     4     3     8     5
 0.0012098939     4     3     8    10
 0.0023453878     4     3     9     4
 -0.0000000121     4     3     9     5
 -0.0000000031     4     3     9    10
 -0.0005695220     4     3    10     8
 0.0000000014     4     3    10     9
 0.2304069782     4     4     1     1
 -0.0000000118     4     4     1     2
 -0.0000000118     4     4     2     1
 0.2256580119     4     4     2     2
 0.2704928247     4     4     3     3
 0.0000000121     4     4     3     8
 -0.0023453878     4     4     3     9
 0.2585111311     4     4     5     5
 -0.0000000199     4     4     5    10
 0.2666048423     4     4     6     6
 0.0000000078     4     4     6     7
 0.0000000078     4     4     7     6
 0.2696759660     4     4     7     7
 0.0000000121     4     4     8     3
 0.2608017674     4     4     8     8
 -0.0000000101     4     4     8     9
 -0.0023453878     4     4     9     3
 -0.0000000101     4     4     9     8
 0.2567717903     4     4     9     9
 -0.0000000199     4     4    10     5
 0.1895562573     4     4    10    10
 -0.0000000118     4     5     1     1
 0.0207869880     4     5     1     2
 -0.0255357614     4     5     2     1
 0.0000000118     4     5     2     2
 0.0023453863     4     5     3     8
 0.0000000121     4     5     3     9
 -0.2585111311     4     5     5     4
 0.0000000078     4     5     6     6
 0.0019223938     4     5     6     7
 0.0011487321     4     5     7     6
 -0.0000000078     4     5     7     7
 0.0023453866     4     5     8     3
 -0.0000000101     4     5     8     8
 -0.0011738338     4     5     8     9
 0.0000000121     4     5     9     3
 -0.0028561291     4     5     9     8
 0.0000000101     4     5     9     9
 0.0000000199     4     5    10     4
 0.0000000012     4     6     1     3
 0.0007378374     4     6     1     8
 -0.0000000014     4     6     1     9
 -0.0004711358     4     6     2     3
 0.0000000002     4     6     2     8
 0.0002225342     4     6     2     9
 -0.0000001099     4     6     3     1
 0.0430169400     4     6     3     2
 0.0000757585     4     6     5     7
 -0.2666048423     4     6     6     4
 -0.0000000078     4     6     6     5
 -0.0000000023     4     6     6    10
 -0.0000000078     4     6     7     4
 -0.0011487321     4     6     7     5
 0.0009049269     4     6     7    10
 0.0265104877     4     6     8     1
 0.0000000678     4     6     8     2
 -0.0000000906     4     6     9     1
 0.0171213331     4     6     9     2
 0.0000000005     4     6    10     7
 -0.0004711357     4     7     1     3
 -0.0000000006     4     7     1     8
 -0.0000666060     4     7     1     9
 -0.0000000012     4     7     2     3
 0.0005819118     4     7     2     8
 -0.0000000019     4     7     2     9
 0.0430168388     4     7     3     1
 0.0000001099     4     7     3     2
 -0.0000757585     4     7     5     6
 -0.0000000078     4     7     6     4
 -0.0019223938     4     7     6     5
 0.0009049261     4     7     6    10
 -0.2696759660     4     7     7     4
 0.0000000078     4     7     7     5
 0.0000000023     4     7     7    10
 -0.0000000445     4     7     8     1
 0.0355744353     4     7     8     2
 -0.0261851734     4     7     9     1
 -0.0000000672     4     7     9     2
 -0.0000000005     4     7    10     6
 -0.0007378374     4     8     1     6
 0.0000000006     4     8     1     7
 -0.0000000002     4     8     2     6
 -0.0005819118     4     8     2     7
 -0.0000000121     4     8     3     4
 -0.0023453863     4     8     3     5
 0.0020136486     4     8     3    10
 0.0000000001     4     8     5     3
 0.0007442424     4     8     5     9
 0.0254091220     4     8     6     1
 0.0000000667     4     8     6     2
 -0.0000000432     4     8     7     1
 0.0345253097     4     8     7     2
 -0.2608017674     4     8     8     4
 0.0000000101     4     8     8     5
 0.0000000008     4     8     8    10
 0.0000000101     4     8     9     4
 0.0028561291     4     8     9     5
 -0.0002740158     4     8     9    10
 0.0005695220     4     8    10     3
 -0.0000000014     4     8    10     9
 0.0000000014     4     9     1     6
 0.0000666060     4     9     1     7
 -0.0002225342     4     9     2     6
 0.0000000019     4     9     2     7
 0.0023453878     4     9     3     4
 -0.0000000121     4     9     3     5
 -0.0000000050     4     9     3    10
 -0.0007442424     4     9     5     8
 -0.0000000879     4     9     6     1
 0.0166580020     4     9     6     2
 -0.0257740864     4     9     7     1
 -0.0000000644     4     9     7     2
 0.0000000101     4     9     8     4
 0.0011738338     4     9     8     5
 -0.0002740147     4     9     8    10
 -0.2567717903     4     9     9     4
 -0.0000000101     4     9     9     5
 -0.0000000008     4     9     9    10
 -0.0000000014     4     9    10     3
 0.0000000014     4     9    10     8
 0.0000000045     4    10     1     1
 -0.0017191499     4    10     1     2
 -0.0017191411     4    10     2     1
 -0.0000000045     4    10     2     2
 -0.0020136486     4    10     3     8
 0.0000000050     4    10     3     9
 0.0000000199     4    10     5     4
 0.0000000023     4    10     6     6
 -0.0009049261     4    10     6     7
 -0.0009049269     4    10     7     6
 -0.0000000023     4    10     7     7
 -0.0012098939     4    10     8     3
 -0.0000000008     4    10     8     8
 0.0002740147     4    10     8     9
 0.0000000031     4    10     9     3
 0.0002740158     4    10     9     8
 0.0000000008     4    10     9     9
 -0.1895562573     4    10    10     4
 0.0000000118     5     1     1     4
 -0.2256580320     5     1     1     5
 -0.0017191334     5     1     1    10
 -0.0207869880     5     1     2     4
 -0.0000000118     5     1     2     5
 -0.0000000045     5     1     2    10
 0.0430168991     5     1     3     6
 0.0000001099     5     1     3     7
 -0.0461479675     5     1     4     2
 0.0434635014     5     1     6     3
 0.0000000644     5     1     6     8
 0.0345252829     5     1     6     9
 0.0000001111     5     1     7     3