&FCI NORB= 19,NELEC= 14,MS2=0,
 ORBSYM=1,1,1,1,1,1,1,1,1,1,1,1,1,1,1,1,1,1,1
 ISYM=1,
&END
 0.4397392864     1     1     2     2
 0.0058901536     1     1     2     4
 0.0044167252     1     1     2    10
 -0.0163776522     1     1     2    15
 0.0025072652     1     1     2    18
 0.7545443636     1     1     3     3
 0.0859573978     1     1     3     5
 -0.0843673826     1     1     3    11
 0.1256836205     1     1     3    14
 0.0058901536     1     1     4     2
 0.6300188184     1     1     4     4
 -0.1065855419     1     1     4    10
 -0.0997912215     1     1     4    15
 -0.1270024855     1     1     4    18
 0.0859573978     1     1     5     3
 0.6651933817     1     1     5     5
 -0.1657963724     1     1     5    11
 -0.1263724254     1     1     5    14
 0.6446232416     1     1     6     6
 0.0000177920     1     1     6     7
 0.1824391033     1     1     6    12
 0.1208079057     1     1     6    13
 0.0028755272     1     1     6    19
 0.0000177920     1     1     7     6
 0.6446910231     1     1     7     7
 -0.1208447315     1     1     7    12
 0.1828022185     1     1     7    13
 -0.0007089230     1     1     7    19
 0.6083662666     1     1     8     8
 -0.0000185943     1     1     8     9
 -0.1894788188     1     1     8    16
 0.1497564498     1     1     8    17
 -0.0000185943     1     1     9     8
 0.6083698718     1     1     9     9
 -0.1498153853     1     1     9    16
 -0.1894221671     1     1     9    17
 0.0044167252     1     1    10     2
 -0.1065855419     1     1    10     4
 0.4609572509     1     1    10    10
 -0.1722784951     1     1    10    15
 0.1450734927     1     1    10    18
 -0.0843673826     1     1    11     3
 -0.1657963724     1     1    11     5
 0.4940386101     1     1    11    11
 -0.0116203609     1     1    11    14
 0.1824391033     1     1    12     6
 -0.1208447315     1     1    12     7
 0.5766776360     1     1    12    12
 -0.0000129119     1     1    12    13
 0.0295608394     1     1    12    19
 0.1208079057     1     1    13     6
 0.1828022185     1     1    13     7
 -0.0000129119     1     1    13    12
 0.5767092086     1     1    13    13
 0.0105495580     1     1    13    19
 0.1256836205     1     1    14     3
 -0.1263724254     1     1    14     5
 -0.0116203609     1     1    14    11
 0.5390371527     1     1    14    14
 -0.0163776522     1     1    15     2
 -0.0997912215     1     1    15     4
 -0.1722784951     1     1    15    10
 0.7226173234     1     1    15    15
 -0.0707360331     1     1    15    18
 -0.1894788188     1     1    16     8
 -0.1498153853     1     1    16     9
 0.5918100981     1     1    16    16
 0.0000024446     1     1    16    17
 0.1497564498     1     1    17     8
 -0.1894221671     1     1    17     9
 0.0000024446     1     1    17    16
 0.5917744100     1     1    17    17
 0.0025072652     1     1    18     2
 -0.1270024855     1     1    18     4
 0.1450734927     1     1    18    10
 -0.0707360331     1     1    18    15
 0.5315572721     1     1    18    18
 0.0028755272     1     1    19     6
 -0.0007089230     1     1    19     7
 0.0295608394     1     1    19    12
 0.0105495580     1     1    19    13
 0.6191291665     1     1    19    19
 -0.4397392864     1     2     2     1
 -0.0072237490     1     2     2     3
 -0.0137333223     1     2     2     5
 0.0102143249     1     2     2    11
 0.0045297983     1     2     2    14
 -0.1675653981     1     2     3     4
 0.1379957456     1     2     3    10
 -0.1139999469     1     2     3    15
 0.1391674094     1     2     3    18
 -0.0058901536     1     2     4     1
 -0.1677674686     1     2     4     3
 0.2324733192     1     2     4     5
 -0.0360281015     1     2     4    11
 -0.1556137516     1     2     4    14
 0.2328412435     1     2     5     4
 0.0633969389     1     2     5    10
 -0.2405949763     1     2     5    15
 0.0036694555     1     2     5    18
 0.1310226467     1     2     6     8
 0.1954918899     1     2     6     9
 -0.1680559397     1     2     6    16
 -0.0540111817     1     2     6    17
 -0.1962343919     1     2     7     8
 0.1323968984     1     2     7     9
 0.0538576188     1     2     7    16
 -0.1689314006     1     2     7    17
 0.1308243299     1     2     8     6
 -0.1959390807     1     2     8     7
 0.1393843654     1     2     8    12
 -0.0579684326     1     2     8    13
 0.0911383459     1     2     8    19
 0.1951967907     1     2     9     6
 0.1321981891     1     2     9     7
 0.0580119711     1     2     9    12
 0.1393610903     1     2     9    13
 0.0827305142     1     2     9    19
 -0.0044167252     1     2    10     1
 0.1378513106     1     2    10     3
 0.0631365648     1     2    10     5
 0.0220248148     1     2    10    11
 0.0708952230     1     2    10    14
 -0.0363264901     1     2    11     4
 0.0218283587     1     2    11    10
 0.1572970810     1     2    11    15
 -0.0388138642     1     2    11    18
 0.1397297399     1     2    12     8
 0.0581594414     1     2    12     9
 -0.2312124682     1     2    12    16
 0.0651596645     1     2    12    17
 -0.0581062140     1     2    13     8
 0.1397012854     1     2    13     9
 -0.0651655373     1     2    13    16
 -0.2311989878     1     2    13    17
 -0.1557507233     1     2    14     4
 0.0708188960     1     2    14    10
 0.1393190470     1     2    14    15
 0.1443160162     1     2    14    18
 0.0163776522     1     2    15     1
 -0.1135035531     1     2    15     3
 -0.2395996111     1     2    15     5
 0.1565416059     1     2    15    11
 0.1390008606     1     2    15    14
 -0.1676361465     1     2    16     6
 0.0537235047     1     2    16     7
 -0.2307648720     1     2    16    12
 -0.0650385099     1     2    16    13
 -0.0685785206     1     2    16    19
 -0.0538776993     1     2    17     6
 -0.1685152094     1     2    17     7
 0.0650376090     1     2    17    12
 -0.2307628041     1     2    17    13
 -0.0046757036     1     2    17    19
 -0.0025072652     1     2    18     1
 0.1390759917     1     2    18     3
 0.0035224664     1     2    18     5
 -0.0387048526     1     2    18    11
 0.1443505252     1     2    18    14
 0.0911588862     1     2    19     8
 0.0827491595     1     2    19     9
 -0.0686109415     1     2    19    16
 -0.0046779141     1     2    19    17
 0.0072237490     1     3     2     2
 0.0001977871     1     3     2     4
 0.0001383335     1     3     2    10
 -0.0005082573     1     3     2    15
 0.0000820809     1     3     2    18
 -0.7545443636     1     3     3     1
 -0.0186711046     1     3     3     5
 0.0153230069     1     3     3    11
 0.0106326021     1     3     3    14
 0.1677674686     1     3     4     2
 -0.0078548074     1     3     4     4
 -0.0031065356     1     3     4    10
 0.0136411242     1     3     4    15
 0.0002191138     1     3     4    18
 -0.0859573978     1     3     5     1
 -0.0237706685     1     3     5     5
 0.0139993055     1     3     5    11
 0.0148311301     1     3     5    14
 -0.0164479111     1     3     6     6
 -0.0000520315     1     3     6     7
 -0.0178626841     1     3     6    12
 -0.0118026245     1     3     6    13
 -0.0111700456     1     3     6    19
 -0.0000520315     1     3     7     6
 -0.0166461331     1     3     7     7
 0.0117969160     1     3     7    12
 -0.0178063964     1     3     7    13
 0.0027538261     1     3     7    19
 -0.0147608437     1     3     8     8
 -0.0000155024     1     3     8     9
 0.0143653199     1     3     8    16
 -0.0113163295     1     3     8    17
 -0.0000155024     1     3     9     8
 -0.0147578381     1     3     9     9
 0.0113633462     1     3     9    16
 0.0143201252     1     3     9    17
 -0.1378513106     1     3    10     2
 -0.0052501296     1     3    10     4
 -0.0003793919     1     3    10    10
 0.0048795554     1     3    10    15
 0.0016659237     1     3    10    18
 0.0843673826     1     3    11     1
 0.0118179031     1     3    11     5
 -0.0081522141     1     3    11    11
 -0.0103263192     1     3    11    14
 -0.0108335579     1     3    12     6
 0.0071827684     1     3    12     7
 -0.0154014801     1     3    12    12
 -0.0000158374     1     3    12    13
 -0.0072039132     1     3    12    19
 -0.0071787757     1     3    13     6
 -0.0108729272     1     3    13     7
 -0.0000158374     1     3    13    12
 -0.0153627541     1     3    13    13
 -0.0025709047     1     3    13    19
 -0.1256836205     1     3    14     1
 0.0050968763     1     3    14     5
 -0.0036448265     1     3    14    11
 -0.0033117282     1     3    14    14
 0.1135035531     1     3    15     2
 0.0160206066     1     3    15     4
 0.0005144715     1     3    15    10
 -0.0232226057     1     3    15    15
 -0.0042012834     1     3    15    18
 0.0110663559     1     3    16     8
 0.0087507106     1     3    16     9
 -0.0182824865     1     3    16    16
 -0.0000015280     1     3    16    17
 -0.0087400588     1     3    17     8
 0.0110561168     1     3    17     9
 -0.0000015280     1     3    17    16
 -0.0182601799     1     3    17    17
 -0.1390759917     1     3    18     2
 -0.0024732413     1     3    18     4
 0.0005443376     1     3    18    10
 0.0022676113     1     3    18    15
 0.0014941095     1     3    18    18
 -0.0037716643     1     3    19     6
 0.0009298537     1     3    19     7
 -0.0015291431     1     3    19    12
 -0.0005457147     1     3    19    13
 -0.0011311184     1     3    19    19
 -0.0058901536     1     4     2     1
 -0.0001977871     1     4     2     3
 -0.0003707518     1     4     2     5
 0.0002934923     1     4     2    11
 0.0001267927     1     4     2    14
 0.1675653981     1     4     3     2
 0.0022416989     1     4     3    10
 -0.0024303487     1     4     3    15
 0.0027173209     1     4     3    18
 -0.6300188184     1     4     4     1
 0.0078548074     1     4     4     3
 0.0026788474     1     4     4     5
 -0.0067534378     1     4     4    11
 0.0000026948     1     4     4    14
 -0.2328412435     1     4     5     2
 0.0099414089     1     4     5    10
 -0.0261660953     1     4     5    15
 0.0091949760     1     4     5    18
 0.0074244666     1     4     6     8
 0.0110635335     1     4     6     9
 -0.0178389835     1     4     6    16
 -0.0057359757     1     4     6    17
 -0.0110894963     1     4     7     8
 0.0074725196     1     4     7     9
 0.0057177364     1     4     7    16
 -0.0179429660     1     4     7    17
 0.0086580529     1     4     8     6
 -0.0127109776     1     4     8     7
 0.0189063393     1     4     8    12
 -0.0077321037     1     4     8    13
 0.0030717375     1     4     8    19
 0.0127985233     1     4     9     6
 0.0084960198     1     4     9     7
 0.0079520683     1     4     9    12
 0.0187887497     1     4     9    13
 0.0027883590     1     4     9    19
 0.1065855419     1     4    10     1
 0.0052501296     1     4    10     3
 0.0063768760     1     4    10     5
 -0.0075384909     1     4    10    11
 -0.0019505332     1     4    10    14
 0.0363264901     1     4    11     2
 -0.0065780424     1     4    11    10
 0.0093292091     1     4    11    15
 -0.0049395769     1     4    11    18
 0.0114378391     1     4    12     8
 0.0047622515     1     4    12     9
 -0.0142288946     1     4    12    16
 0.0040054764     1     4    12    17
 -0.0047540319     1     4    13     8
 0.0114334450     1     4    13     9
 -0.0040112682     1     4    13    16
 -0.0142156003     1     4    13    17
 0.1557507233     1     4    14     2
 -0.0046087805     1     4    14    10
 0.0084819966     1     4    14    15
 -0.0041466029     1     4    14    18
 0.0997912215     1     4    15     1
 -0.0160206066     1     4    15     3
 -0.0150680781     1     4    15     5
 0.0149373725     1     4    15    11
 -0.0005121134     1     4    15    14
 -0.0130277731     1     4    16     6
 0.0041731810     1     4    16     7
 -0.0152628342     1     4    16    12
 -0.0043066962     1     4    16    13
 -0.0042728610     1     4    16    19
 -0.0041805122     1     4    17     6
 -0.0130695679     1     4    17     7
 0.0042781081     1     4    17    12
 -0.0151972136     1     4    17    13
 -0.0002913249     1     4    17    19
 0.1270024855     1     4    18     1
 0.0024732413     1     4    18     3
 0.0035573757     1     4    18     5
 -0.0026702237     1     4    18    11
 -0.0010822812     1     4    18    14
 0.0040318144     1     4    19     8
 0.0036598654     1     4    19     9
 -0.0091522671     1     4    19    16
 -0.0006240042     1     4    19    17
 0.0137333223     1     5     2     2
 0.0003707518     1     5     2     4
 0.0002668985     1     5     2    10
 -0.0010114866     1     5     2    15
 0.0001473792     1     5     2    18
 -0.0859573978     1     5     3     1
 0.0186711046     1     5     3     3
 0.0022198693     1     5     3    11
 0.0097008927     1     5     3    14
 -0.2324733192     1     5     4     2
 -0.0026788474     1     5     4     4
 0.0035246416     1     5     4    10
 -0.0110912847     1     5     4    15
 0.0056343772     1     5     4    18
 -0.6651933817     1     5     5     1
 0.0237706685     1     5     5     3
 -0.0091728392     1     5     5    11
 0.0122062365     1     5     5    14
 0.0129447498     1     5     6     6
 -0.0000311592     1     5     6     7
 0.0083358609     1     5     6    12
 0.0055353427     1     5     6    13
 -0.0069375097     1     5     6    19
 -0.0000311592     1     5     7     6
 0.0128260440     1     5     7     7
 -0.0055426319     1     5     7    12
 0.0084077350     1     5     7    13
 0.0017103507     1     5     7    19
 0.0090347118     1     5     8     8
 0.0000337506     1     5     8     9
 -0.0089317686     1     5     8    16
 0.0070206199     1     5     8    17
 0.0000337506     1     5     9     8
 0.0090281681     1     5     9     9
 -0.0070673656     1     5     9    16
 -0.0088868343     1     5     9    17
 -0.0631365648     1     5    10     2
 -0.0063768760     1     5    10     4
 0.0058587405     1     5    10    10
 -0.0090239507     1     5    10    15
 0.0078203927     1     5    10    18
 0.1657963724     1     5    11     1
 -0.0118179031     1     5    11     3
 0.0036463787     1     5    11    11
 -0.0127058214     1     5    11    14
 0.0054263242     1     5    12     6
 -0.0035603857     1     5    12     7
 0.0086482295     1     5    12    12
 -0.0000032751     1     5    12    13
 -0.0030126810     1     5    12    19
 0.0035683082     1     5    13     6
 0.0053482059     1     5    13     7
 -0.0000032751     1     5    13    12
 0.0086562378     1     5    13    13
 -0.0010751539     1     5    13    19
 0.1263724254     1     5    14     1
 -0.0050968763     1     5    14     3
 0.0007115329     1     5    14    11
 -0.0008372458     1     5    14    14
 0.2395996111     1     5    15     2
 0.0150680781     1     5    15     4
 -0.0174604275     1     5    15    10
 0.0154692597     1     5    15    15
 -0.0196880094     1     5    15    18
 -0.0055659126     1     5    16     8
 -0.0044017101     1     5    16     9
 0.0088352477     1     5    16    16
 0.0000007963     1     5    16    17
 0.0043924372     1     5    17     8
 -0.0055569991     1     5    17     9
 0.0000007963     1     5    17    16
 0.0088236233     1     5    17    17
 -0.0035224664     1     5    18     2
 -0.0035573757     1     5    18     4
 0.0046302971     1     5    18    10
 -0.0034148538     1     5    18    15
 0.0066321328     1     5    18    18
 0.0002704382     1     5    19     6
 -0.0000666729     1     5    19     7
 0.0067925691     1     5    19    12
 0.0024241058     1     5    19    13
 0.0087868723     1     5    19    19
 0.0002001521     1     6     2     8
 0.0002962735     1     6     2     9
 -0.0004187506     1     6     2    16
 -0.0001331896     1     6     2    17
 -0.0071136081     1     6     3    12
 -0.0046988932     1     6     3    13
 -0.0073400015     1     6     3    19
 -0.0012376516     1     6     4     8
 -0.0017425473     1     6     4     9
 -0.0048762477     1     6     4    16
 -0.0015793161     1     6     4    17
 0.0029315498     1     6     5    12
 0.0019488983     1     6     5    13
 -0.0071057418     1     6     5    19
 -0.6446232416     1     6     6     1
 0.0164479111     1     6     6     3
 -0.0129447498     1     6     6     5
 0.0074050814     1     6     6    11
 0.0106703593     1     6     6    14
 -0.0000177920     1     6     7     1
 0.0000520315     1     6     7     3
 0.0000311592     1     6     7     5
 -0.0000398807     1     6     7    11
 0.0000052096     1     6     7    14
 -0.1308243299     1     6     8     2
 -0.0086580529     1     6     8     4
 0.0065272279     1     6     8    10
 -0.0047815700     1     6     8    15
 0.0056378432     1     6     8    18
 -0.1951967907     1     6     9     2
 -0.0127985233     1     6     9     4
 0.0097434870     1     6     9    10
 -0.0071766203     1     6     9    15
 0.0084132305     1     6     9    18
 0.0003359250     1     6    10     8
 0.0005242532     1     6    10     9
 0.0013471546     1     6    10    16
 0.0004118682     1     6    10    17
 -0.0035440197     1     6    11    12
 -0.0023226344     1     6    11    13
 -0.0001183944     1     6    11    19
 -0.1824391033     1     6    12     1
 0.0108335579     1     6    12     3
 -0.0054263242     1     6    12     5
 0.0006642754     1     6    12    11
 0.0132634959     1     6    12    14
 -0.1208079057     1     6    13     1
 0.0071787757     1     6    13     3
 -0.0035683082     1     6    13     5
 0.0004250185     1     6    13    11
 0.0087897908     1     6    13    14
 0.0039668966     1     6    14    12
 0.0026077315     1     6    14    13
 0.0026184999     1     6    14    19
 -0.0001922416     1     6    15     8
 -0.0003195683     1     6    15     9
 -0.0026726723     1     6    15    16
 -0.0008310109     1     6    15    17
 0.1676361465     1     6    16     2
 0.0130277731     1     6    16     4
 -0.0105566726     1     6    16    10
 0.0016662628     1     6    16    15
 -0.0153868566     1     6    16    18
 0.0538776993     1     6    17     2
 0.0041805122     1     6    17     4
 -0.0033986826     1     6    17    10
 0.0005521333     1     6    17    15
 -0.0049489731     1     6    17    18
 -0.0004706588     1     6    18     8
 -0.0006910852     1     6    18     9
 -0.0027796137     1     6    18    16
 -0.0009011177     1     6    18    17
 -0.0028755272     1     6    19     1
 0.0037716643     1     6    19     3
 -0.0002704382     1     6    19     5
 -0.0068290071     1     6    19    11
 0.0024771126     1     6    19    14
 -0.0002947110     1     7     2     8
 0.0001972603     1     7     2     9
 0.0001337924     1     7     2    16
 -0.0004153139     1     7     2    17
 0.0046961252     1     7     3    12
 -0.0070863151     1     7     3    13
 0.0018095797     1     7     3    19
 0.0016307641     1     7     4     8
 -0.0010307592     1     7     4     9
 0.0015662596     1     7     4    16
 -0.0049506827     1     7     4    17
 -0.0019522702     1     7     5    12
 0.0029647976     1     7     5    13
 0.0017518261     1     7     5    19
 -0.0000177920     1     7     6     1
 0.0000520315     1     7     6     3
 0.0000311592     1     7     6     5
 -0.0000398807     1     7     6    11
 0.0000052096     1     7     6    14
 -0.6446910231     1     7     7     1
 0.0166461331     1     7     7     3
 -0.0128260440     1     7     7     5
 0.0072531496     1     7     7    11
 0.0106902060     1     7     7    14
 0.1959390807     1     7     8     2
 0.0127109776     1     7     8     4
 -0.0097856800     1     7     8    10
 0.0072519898     1     7     8    15
 -0.0084466706     1     7     8    18
 -0.1321981891     1     7     9     2
 -0.0084960198     1     7     9     4
 0.0066053204     1     7     9    10
 -0.0049210669     1     7     9    15
 0.0056997353     1     7     9    18
 -0.0005524504     1     7    10     8
 0.0003881132     1     7    10     9
 -0.0004255698     1     7    10    16
 0.0012690421     1     7    10    17
 0.0023146052     1     7    11    12
 -0.0034648489     1     7    11    13
 0.0000291886     1     7    11    19
 0.1208447315     1     7    12     1
 -0.0071827684     1     7    12     3
 0.0035603857     1     7    12     5
 -0.0004197749     1     7    12    11
 -0.0087949814     1     7    12    14
 -0.1828022185     1     7    13     1
 0.0108729272     1     7    13     3
 -0.0053482059     1     7    13     5
 0.0006125715     1     7    13    11
 0.0133146763     1     7    13    14
 -0.0026016253     1     7    14    12
 0.0039066875     1     7    14    13
 -0.0006455563     1     7    14    19
 0.0003580186     1     7    15     8
 -0.0002634071     1     7    15     9
 0.0008483602     1     7    15    16
 -0.0025737644     1     7    15    17
 -0.0537235047     1     7    16     2
 -0.0041731810     1     7    16     4
 0.0033848638     1     7    16    10
 -0.0005388465     1     7    16    15
 0.0049322085     1     7    16    18
 0.1685152094     1     7    17     2
 0.0130695679     1     7    17     4
 -0.0106354540     1     7    17    10
 0.0017420109     1     7    17    15
 -0.0154824319     1     7    17    18
 0.0006810155     1     7    18     8
 -0.0004520216     1     7    18     9
 0.0008930676     1     7    18    16
 -0.0028255078     1     7    18    17
 0.0007089230     1     7    19     1
 -0.0009298537     1     7    19     3
 0.0000666729     1     7    19     5
 0.0016836008     1     7    19    11
 -0.0006106991     1     7    19    14
 -0.0002001521     1     8     2     6
 0.0002947110     1     8     2     7
 -0.0003432349     1     8     2    12
 0.0001371923     1     8     2    13
 -0.0000165545     1     8     2    19
 0.0032172807     1     8     3    16
 -0.0024775364     1     8     3    17
 0.0012376516     1     8     4     6
 -0.0016307641     1     8     4     7
 0.0071965204     1     8     4    12
 -0.0028188833     1     8     4    13
 -0.0010495849     1     8     4    19
 -0.0032566301     1     8     5    16
 0.0025419745     1     8     5    17
 -0.1310226467     1     8     6     2
 -0.0074244666     1     8     6     4
 0.0061965182     1     8     6    10
 -0.0046555611     1     8     6    15
 0.0061267269     1     8     6    18
 0.1962343919     1     8     7     2
 0.0110894963     1     8     7     4
 -0.0092632821     1     8     7    10
 0.0070384139     1     8     7    15
 -0.0091850900     1     8     7    18
 -0.6083662666     1     8     8     1
 0.0147608437     1     8     8     3
 -0.0090347118     1     8     8     5
 0.0017450650     1     8     8    11
 0.0102417509     1     8     8    14
 0.0000185943     1     8     9     1
 0.0000155024     1     8     9     3
 -0.0000337506     1     8     9     5
 0.0000195861     1     8     9    11
 0.0000019861     1     8     9    14
 -0.0003359250     1     8    10     6
 0.0005524504     1     8    10     7
 -0.0026701390     1     8    10    12
 0.0010889695     1     8    10    13
 -0.0022009039     1     8    10    19
 0.0004812351     1     8    11    16
 -0.0003828332     1     8    11    17
 -0.1397297399     1     8    12     2
 -0.0114378391     1     8    12     4
 0.0086267803     1     8    12    10
 -0.0014143555     1     8    12    15
 0.0125714488     1     8    12    18
 0.0581062140     1     8    13     2
 0.0047540319     1     8    13     4
 -0.0035837142     1     8    13    10
 0.0005904575     1     8    13    15
 -0.0052217132     1     8    13    18
 -0.0009019130     1     8    14    16
 0.0007028142     1     8    14    17
 0.0001922416     1     8    15     6
 -0.0003580186     1     8    15     7
 0.0021689736     1     8    15    12
 -0.0008730354     1     8    15    13
 0.0040677114     1     8    15    19
 0.1894788188     1     8    16     1
 -0.0110663559     1     8    16     3
 0.0055659126     1     8    16     5
 -0.0014727172     1     8    16    11
 -0.0113032609     1     8    16    14
 -0.1497564498     1     8    17     1
 0.0087400588     1     8    17     3
 -0.0043924372     1     8    17     5
 0.0011527905     1     8    17    11
 0.0089245900     1     8    17    14
 0.0004706588     1     8    18     6
 -0.0006810155     1     8    18     7
 0.0019275835     1     8    18    12
 -0.0008000353     1     8    18    13
 -0.0009190550     1     8    18    19
 -0.0911588862     1     8    19     2
 -0.0040318144     1     8    19     4
 0.0028721248     1     8    19    10
 -0.0042359055     1     8    19    15
 0.0032638776     1     8    19    18
 -0.0002962735     1     9     2     6
 -0.0001972603     1     9     2     7
 -0.0001463885     1     9     2    12
 -0.0003383188     1     9     2    13
 -0.0000150273     1     9     2    19
 0.0025527112     1     9     3    16
 0.0031450190     1     9     3    17
 0.0017425473     1     9     4     6
 0.0010307592     1     9     4     7
 0.0031059260     1     9     4    12
 0.0070430720     1     9     4    13
 -0.0009527571     1     9     4    19
 -0.0025792775     1     9     5    16
 -0.0032207726     1     9     5    17
 -0.1954918899     1     9     6     2
 -0.0110635335     1     9     6     4
 0.0092374019     1     9     6    10
 -0.0069770038     1     9     6    15
 0.0091455686     1     9     6    18
 -0.1323968984     1     9     7     2
 -0.0074725196     1     9     7     4
 0.0062444183     1     9     7    10
 -0.0047692214     1     9     7    15
 0.0061998746     1     9     7    18
 0.0000185943     1     9     8     1
 0.0000155024     1     9     8     3
 -0.0000337506     1     9     8     5
 0.0000195861     1     9     8    11
 0.0000019861     1     9     8    14
 -0.6083698718     1     9     9     1
 0.0147578381     1     9     9     3
 -0.0090281681     1     9     9     5
 0.0017412676     1     9     9    11
 0.0102413658     1     9     9    14
 -0.0005242532     1     9    10     6
 -0.0003881132     1     9    10     7
 -0.0011249992     1     9    10    12
 -0.0026508780     1     9    10    13
 -0.0019978627     1     9    10    19
 0.0003801599     1     9    11    16
 0.0004838049     1     9    11    17
 -0.0581594414     1     9    12     2
 -0.0047622515     1     9    12     4
 0.0035930667     1     9    12    10
 -0.0005872303     1     9    12    15
 0.0052364625     1     9    12    18
 -0.1397012854     1     9    13     2
 -0.0114334450     1     9    13     4
 0.0086217806     1     9    13    10
 -0.0014160808     1     9    13    15
 0.0125635640     1     9    13    18
 -0.0007144829     1     9    14    16
 -0.0008906964     1     9    14    17
 0.0003195683     1     9    15     6
 0.0002634071     1     9    15     7
 0.0009211871     1     9    15    12
 0.0021432325     1     9    15    13
 0.0036924507     1     9    15    19
 0.1498153853     1     9    16     1
 -0.0087507106     1     9    16     3
 0.0044017101     1     9    16     5
 -0.0011659600     1     9    16    11
 -0.0089383938     1     9    16    14
 0.1894221671     1     9    17     1
 -0.0110561168     1     9    17     3
 0.0055569991     1     9    17     5
 -0.0014600579     1     9    17    11
 -0.0112899918     1     9    17    14
 0.0006910852     1     9    18     6
 0.0004520216     1     9    18     7
 0.0008032969     1     9    18    12
 0.0019258399     1     9    18    13
 -0.0008342689     1     9    18    19
 -0.0827491595     1     9    19     2
 -0.0036598654     1     9    19     4
 0.0026071613     1     9    19    10
 -0.0038451285     1     9    19    15
 0.0029627735     1     9    19    18
 -0.0044167252     1    10     2     1
 -0.0001383335     1    10     2     3
 -0.0002668985     1    10     2     5
 0.0001913906     1    10     2    11
 0.0000733378     1    10     2    14
 -0.1379957456     1    10     3     2
 -0.0022416989     1    10     3     4
 0.0043423792     1    10     3    15
 0.0011116919     1    10     3    18
 0.1065855419     1    10     4     1
 0.0031065356     1    10     4     3
 -0.0035246416     1    10     4     5
 -0.0009237660     1    10     4    11
 0.0026790999     1    10     4    14
 -0.0633969389     1    10     5     2
 -0.0099414089     1    10     5     4
 0.0085672873     1    10     5    15
 0.0032206251     1    10     5    18
 -0.0061965182     1    10     6     8
 -0.0092374019     1    10     6     9
 0.0118427613     1    10     6    16
 0.0037846283     1    10     6    17
 0.0092632821     1    10     7     8
 -0.0062444183     1    10     7     9
 -0.0037890248     1    10     7    16
 0.0118176970     1    10     7    17
 -0.0065272279     1    10     8     6
 0.0097856800     1    10     8     7
 -0.0113120496     1    10     8    12
 0.0046897886     1    10     8    13
 -0.0050742778     1    10     8    19
 -0.0097434870     1    10     9     6
 -0.0066053204     1    10     9     7
 -0.0047174855     1    10     9    12
 -0.0112972432     1    10     9    13
 -0.0046061579     1    10     9    19
 -0.4609572509     1    10    10     1
 0.0003793919     1    10    10     3
 -0.0058587405     1    10    10     5
 0.0019508654     1    10    10    11
 0.0026193067     1    10    10    14
 -0.0218283587     1    10    11     2
 0.0065780424     1    10    11     4
 -0.0127180718     1    10    11    15
 -0.0009483839     1    10    11    18
 -0.0086267803     1    10    12     8
 -0.0035930667     1    10    12     9
 0.0126050063     1    10    12    16
 -0.0035496734     1    10    12    17
 0.0035837142     1    10    13     8
 -0.0086217806     1    10    13     9
 0.0035531934     1    10    13    16
 0.0125969268     1    10    13    17
 -0.0708188960     1    10    14     2
 0.0046087805     1    10    14     4
 -0.0077923306     1    10    14    15
 -0.0015871108     1    10    14    18
 0.1722784951     1    10    15     1