&FCI NORB=  6,NELEC=  6,MS2=0,
 ORBSYM=1,1,1,1,1,1
 ISYM=1,
&END
 0.4801165568     1     1     2     2
 0.4801165568     1     1     3     3
 0.4286353139     1     1     4     4
 0.4286353139     1     1     5     5
 0.2916389468     1     1     6     6
 -0.4801165568     1     2     2     1
 0.0002082830     1     2     4     6
 0.0002217411     1     2     5     6
 0.0027040690     1     2     6     4
 0.0028787913     1     2     6     5
 -0.4801165568     1     3     3     1
 0.0002217411     1     3     4     6
 -0.0002082830     1     3     5     6
 0.0028787913     1     3     6     4
 -0.0027040690     1     3     6     5
 -0.0024957860     1     4     2     6
 -0.0026570502     1     4     3     6
 -0.4286353139     1     4     4     1
 -0.0027040690     1     4     6     2
 -0.0028787913     1     4     6     3
 -0.0026570502     1     5     2     6
 0.0024957860     1     5     3     6
 -0.4286353139     1     5     5     1
 -0.0028787913     1     5     6     2
 0.0027040690     1     5     6     3
 0.0024957860     1     6     2     4
 0.0026570502     1     6     2     5
 0.0026570502     1     6     3     4
 -0.0024957860     1     6     3     5
 -0.0002082830     1     6     4     2
 -0.0002217411     1     6     4     3
 -0.0002217411     1     6     5     2
 0.0002082830     1     6     5     3
 -0.2916389468     1     6     6     1
 -0.4801165568     2     1     1     2
 0.0027040690     2     1     4     6
 0.0028787913     2     1     5     6
 0.0002082830     2     1     6     4
 0.0002217411     2     1     6     5
 0.4801165568     2     2     1     1
 0.5077609622     2     2     3     3
 0.4046519165     2     2     4     4
 -0.0401765362     2     2     4     5
 -0.0401765362     2     2     5     4
 0.3996174944     2     2     5     5
 0.2748946222     2     2     6     6
 -0.5077609622     2     3     3     2
 -0.0401765362     2     3     4     4
 -0.0469376822     2     3     4     5
 0.0419032601     2     3     5     4
 0.0401765362     2     3     5     5
 0.0024957860     2     4     1     6
 -0.0888409423     2     4     3     5
 -0.4046519165     2     4     4     2
 0.0401765362     2     4     4     3
 0.0401765362     2     4     5     2
 -0.0419032601     2     4     5     3
 -0.0002082830     2     4     6     1
 0.0026570502     2     5     1     6
 0.0888409423     2     5     3     4
 0.0401765362     2     5     4     2
 0.0469376822     2     5     4     3
 -0.3996174944     2     5     5     2
 -0.0401765362     2     5     5     3
 -0.0002217411     2     5     6     1
 -0.0024957860     2     6     1     4
 -0.0026570502     2     6     1     5
 -0.0027040690     2     6     4     1
 -0.0028787913     2     6     5     1
 -0.2748946222     2     6     6     2
 -0.4801165568     3     1     1     3
 0.0028787913     3     1     4     6
 -0.0027040690     3     1     5     6
 0.0002217411     3     1     6     4
 -0.0002082830     3     1     6     5
 -0.5077609622     3     2     2     3
 -0.0401765362     3     2     4     4
 0.0419032601     3     2     4     5
 -0.0469376822     3     2     5     4
 0.0401765362     3     2     5     5
 0.4801165568     3     3     1     1
 0.5077609622     3     3     2     2
 0.3996174944     3     3     4     4
 0.0401765362     3     3     4     5
 0.0401765362     3     3     5     4
 0.4046519165     3     3     5     5
 0.2748946222     3     3     6     6
 0.0026570502     3     4     1     6
 0.0888409423     3     4     2     5
 0.0401765362     3     4     4     2
 -0.3996174944     3     4     4     3
 0.0469376822     3     4     5     2
 -0.0401765362     3     4     5     3
 -0.0002217411     3     4     6     1
 -0.0024957860     3     5     1     6
 -0.0888409423     3     5     2     4
 -0.0419032601     3     5     4     2
 -0.0401765362     3     5     4     3
 -0.0401765362     3     5     5     2
 -0.4046519165     3     5     5     3
 0.0002082830     3     5     6     1
 -0.0026570502     3     6     1     4
 0.0024957860     3     6     1     5
 -0.0028787913     3     6     4     1
 0.0027040690     3     6     5     1
 -0.2748946222     3     6     6     3
 -0.4286353139     4     1     1     4
 -0.0027040690     4     1     2     6
 -0.0028787913     4     1     3     6
 -0.0024957860     4     1     6     2
 -0.0026570502     4     1     6     3
 -0.0002082830     4     2     1     6
 -0.4046519165     4     2     2     4
 0.0401765362     4     2     2     5
 0.0401765362     4     2     3     4
 -0.0419032601     4     2     3     5
 -0.0888409423     4     2     5     3
 0.0024957860     4     2     6     1
 -0.0002217411     4     3     1     6
 0.0401765362     4     3     2     4
 0.0469376822     4     3     2     5
 -0.3996174944     4     3     3     4
 -0.0401765362     4     3     3     5
 0.0888409423     4     3     5     2
 0.0026570502     4     3     6     1
 0.4286353139     4     4     1     1
 0.4046519165     4     4     2     2
 -0.0401765362     4     4     2     3
 -0.0401765362     4     4     3     2
 0.3996174944     4     4     3     3
 0.3975705622     4     4     5     5
 0.2711119343     4     4     6     6
 -0.0401765362     4     5     2     2
 -0.0469376822     4     5     2     3
 0.0419032601     4     5     3     2
 0.0401765362     4     5     3     3
 -0.3975705622     4     5     5     4
 0.0002082830     4     6     1     2
 0.0002217411     4     6     1     3
 0.0027040690     4     6     2     1
 0.0028787913     4     6     3     1
 -0.2711119343     4     6     6     4
 -0.4286353139     5     1     1     5
 -0.0028787913     5     1     2     6
 0.0027040690     5     1     3     6
 -0.0026570502     5     1     6     2
 0.0024957860     5     1     6     3
 -0.0002217411     5     2     1     6
 0.0401765362     5     2     2     4
 -0.3996174944     5     2     2     5
 0.0469376822     5     2     3     4
 -0.0401765362     5     2     3     5
 0.0888409423     5     2     4     3
 0.0026570502     5     2     6     1
 0.0002082830     5     3     1     6
 -0.0419032601     5     3     2     4
 -0.0401765362     5     3     2     5
 -0.0401765362     5     3     3     4
 -0.4046519165     5     3     3     5
 -0.0888409423     5     3     4     2
 -0.0024957860     5     3     6     1
 -0.0401765362     5     4     2     2
 0.0419032601     5     4     2     3
 -0.0469376822     5     4     3     2
 0.0401765362     5     4     3     3
 -0.3975705622     5     4     4     5
 0.4286353139     5     5     1     1
 0.3996174944     5     5     2     2
 0.0401765362     5     5     2     3
 0.0401765362     5     5     3     2
 0.4046519165     5     5     3     3
 0.3975705622     5     5     4     4
 0.2711119343     5     5     6     6
 0.0002217411     5     6     1     2
 -0.0002082830     5     6     1     3
 0.0028787913     5     6     2     1
 -0.0027040690     5     6     3     1
 -0.2711119343     5     6     6     5
 -0.2916389468     6     1     1     6
 -0.0002082830     6     1     2     4
 -0.0002217411     6     1     2     5
 -0.0002217411     6     1     3     4
 0.0002082830     6     1     3     5
 0.0024957860     6     1     4     2
 0.0026570502     6     1     4     3
 0.0026570502     6     1     5     2
 -0.0024957860     6     1     5     3
 -0.0027040690     6     2     1     4
 -0.0028787913     6     2     1     5
 -0.2748946222     6     2     2     6
 -0.0024957860     6     2     4     1
 -0.0026570502     6     2     5     1
 -0.0028787913     6     3     1     4
 0.0027040690     6     3     1     5
 -0.2748946222     6     3     3     6
 -0.0026570502     6     3     4     1
 0.0024957860     6     3     5     1
 0.0027040690     6     4     1     2
 0.0028787913     6     4     1     3
 0.0002082830     6     4     2     1
 0.0002217411     6     4     3     1
 -0.2711119343     6     4     4     6
 0.0028787913     6     5     1     2
 -0.0027040690     6     5     1     3
 0.0002217411     6     5     2     1
 -0.0002082830     6     5     3     1
 -0.2711119343     6     5     5     6
 0.2916389468     6     6     1     1
 0.2748946222     6     6     2     2
 0.2748946222     6     6     3     3
 0.2711119343     6     6     4     4
 0.2711119343     6     6     5     5
0.0 0 0 0 0
 0.4801165568     1     1     2     2
 0.4801165568     1     1     3     3
 0.4286353139     1     1     4     4
 0.4286353139     1     1     5     5
 0.2916389468     1     1     6     6
 -0.4801165568     1     2     2     1
 0.0002082830     1     2     4     6
 0.0002217411     1     2     5     6
 0.0027040690     1     2     6     4
 0.0028787913     1     2     6     5
 -0.4801165568     1     3     3     1
 0.0002217411     1     3     4     6
 -0.0002082830     1     3     5     6
 0.0028787913     1     3     6     4
 -0.0027040690     1     3     6     5
 -0.0024957860     1     4     2     6
 -0.0026570502     1     4     3     6
 -0.4286353139     1     4     4     1
 -0.0027040690     1     4     6     2
 -0.0028787913     1     4     6     3
 -0.0026570502     1     5     2     6
 0.0024957860     1     5     3     6
 -0.4286353139     1     5     5     1
 -0.0028787913     1     5     6     2
 0.0027040690     1     5     6     3
 0.0024957860     1     6     2     4
 0.0026570502     1     6     2     5
 0.0026570502     1     6     3     4
 -0.0024957860     1     6     3     5
 -0.0002082830     1     6     4     2
 -0.0002217411     1     6     4     3
 -0.0002217411     1     6     5     2
 0.0002082830     1     6     5     3
 -0.2916389468     1     6     6     1
 -0.4801165568     2     1     1     2
 0.0027040690     2     1     4     6
 0.0028787913     2     1     5     6
 0.0002082830     2     1     6     4
 0.0002217411     2     1     6     5
 0.4801165568     2     2     1     1
 0.5077609622     2     2     3     3
 0.4046519165     2     2     4     4
 -0.0401765362     2     2     4     5
 -0.0401765362     2     2     5     4
 0.3996174944     2     2     5     5
 0.2748946222     2     2     6     6
 -0.5077609622     2     3     3     2
 -0.0401765362     2     3     4     4
 -0.0469376822     2     3     4     5
 0.0419032601     2     3     5     4
 0.0401765362     2     3     5     5
 0.0024957860     2     4     1     6
 -0.0888409423     2     4     3     5
 -0.4046519165     2     4     4     2
 0.0401765362     2     4     4     3
 0.0401765362     2     4     5     2
 -0.0419032601     2     4     5     3
 -0.0002082830     2     4     6     1
 0.0026570502     2     5     1     6
 0.0888409423     2     5     3     4
 0.0401765362     2     5     4     2
 0.0469376822     2     5     4     3
 -0.3996174944     2     5     5     2
 -0.0401765362     2     5     5     3
 -0.0002217411     2     5     6     1
 -0.0024957860     2     6     1     4
 -0.0026570502     2     6     1     5
 -0.0027040690     2     6     4     1
 -0.0028787913     2     6     5     1
 -0.2748946222     2     6     6     2
 -0.4801165568     3     1     1     3
 0.0028787913     3     1     4     6
 -0.0027040690     3     1     5     6
 0.0002217411     3     1     6     4
 -0.0002082830     3     1     6     5
 -0.5077609622     3     2     2     3
 -0.0401765362     3     2     4     4
 0.0419032601     3     2     4     5
 -0.0469376822     3     2     5     4
 0.0401765362     3     2     5     5
 0.4801165568     3     3     1     1
 0.5077609622     3     3     2     2
 0.3996174944     3     3     4     4
 0.0401765362     3     3     4     5
 0.0401765362     3     3     5     4
 0.4046519165     3     3     5     5
 0.2748946222     3     3     6     6
 0.0026570502     3     4     1     6
 0.0888409423     3     4     2     5
 0.0401765362     3     4     4     2
 -0.3996174944     3     4     4     3
 0.0469376822     3     4     5     2
 -0.0401765362     3     4     5     3
 -0.0002217411     3     4     6     1
 -0.0024957860     3     5     1     6
 -0.0888409423     3     5     2     4
 -0.0419032601     3     5     4     2
 -0.0401765362     3     5     4     3
 -0.0401765362     3     5     5     2
 -0.4046519165     3     5     5     3
 0.0002082830     3     5     6     1
 -0.0026570502     3     6     1     4
 0.0024957860     3     6     1     5
 -0.0028787913     3     6     4     1
 0.0027040690     3     6     5     1
 -0.2748946222     3     6     6     3
 -0.4286353139     4     1     1     4
 -0.0027040690     4     1     2     6
 -0.0028787913     4     1     3     6
 -0.0024957860     4     1     6     2
 -0.0026570502     4     1     6     3
 -0.0002082830     4     2     1     6
 -0.4046519165     4     2     2     4
 0.0401765362     4     2     2     5
 0.0401765362     4     2     3     4
 -0.0419032601     4     2     3     5
 -0.0888409423     4     2     5     3
 0.0024957860     4     2     6     1
 -0.0002217411     4     3     1     6
 0.0401765362     4     3     2     4
 0.0469376822     4     3     2     5
 -0.3996174944     4     3     3     4
 -0.0401765362     4     3     3     5
 0.0888409423     4     3     5     2
 0.0026570502     4     3     6     1
 0.4286353139     4     4     1     1
 0.4046519165     4     4     2     2
 -0.0401765362     4     4     2     3
 -0.0401765362     4     4     3     2
 0.3996174944     4     4     3     3
 0.3975705622     4     4     5     5
 0.2711119343     4     4     6     6
 -0.0401765362     4     5     2     2
 -0.0469376822     4     5     2     3
 0.0419032601     4     5     3     2
 0.0401765362     4     5     3     3
 -0.3975705622     4     5     5     4
 0.0002082830     4     6     1     2
 0.0002217411     4     6     1     3
 0.0027040690     4     6     2     1
 0.0028787913     4     6     3     1
 -0.2711119343     4     6     6     4
 -0.4286353139     5     1     1     5
 -0.0028787913     5     1     2     6
 0.0027040690     5     1     3     6
 -0.0026570502     5     1     6     2
 0.0024957860     5     1     6     3
 -0.0002217411     5     2     1     6
 0.0401765362     5     2     2     4
 -0.3996174944     5     2     2     5
 0.0469376822     5     2     3     4
 -0.0401765362     5     2     3     5
 0.0888409423     5     2     4     3
 0.0026570502     5     2     6     1
 0.0002082830     5     3     1     6
 -0.0419032601     5     3     2     4
 -0.0401765362     5     3     2     5
 -0.0401765362     5     3     3     4
 -0.4046519165     5     3     3     5
 -0.0888409423     5     3     4     2
 -0.0024957860     5     3     6     1
 -0.0401765362     5     4     2     2
 0.0419032601     5     4     2     3
 -0.0469376822     5     4     3     2
 0.0401765362     5     4     3     3
 -0.3975705622     5     4     4     5
 0.4286353139     5     5     1     1
 0.3996174944     5     5     2     2
 0.0401765362     5     5     2     3
 0.0401765362     5     5     3     2
 0.4046519165     5     5     3     3
 0.3975705622     5     5     4     4
 0.2711119343     5     5     6     6
 0.0002217411     5     6     1     2
 -0.0002082830     5     6     1     3
 0.0028787913     5     6     2     1
 -0.0027040690     5     6     3     1
 -0.2711119343     5     6     6     5
 -0.2916389468     6     1     1     6
 -0.0002082830     6     1     2     4
 -0.0002217411     6     1     2     5
 -0.0002217411     6     1     3     4
 0.0002082830     6     1     3     5
 0.0024957860     6     1     4     2
 0.0026570502     6     1     4     3
 0.0026570502     6     1     5     2
 -0.0024957860     6     1     5     3
 -0.0027040690     6     2     1     4
 -0.0028787913     6     2     1     5
 -0.2748946222     6     2     2     6
 -0.0024957860     6     2     4     1
 -0.0026570502     6     2     5     1
 -0.0028787913     6     3     1     4
 0.0027040690     6     3     1     5
 -0.2748946222     6     3     3     6
 -0.0026570502     6     3     4     1
 0.0024957860     6     3     5     1
 0.0027040690     6     4     1     2
 0.0028787913     6     4     1     3
 0.0002082830     6     4     2     1
 0.0002217411     6     4     3     1
 -0.2711119343     6     4     4     6
 0.0028787913     6     5     1     2
 -0.0027040690     6     5     1     3
 0.0002217411     6     5     2     1
 -0.0002082830     6     5     3     1
 -0.2711119343     6     5     5     6
 0.2916389468     6     6     1     1
 0.2748946222     6     6     2     2
 0.2748946222     6     6     3     3
 0.2711119343     6     6     4     4
 0.2711119343     6     6     5     5
0.0 0 0 0 0
 0.5582865742     1     1     1     1
 0.5035233981     1     1     2     2
 0.5035233981     1     1     3     3
 0.4624703344     1     1     4     4
 0.4624703344     1     1     5     5
 0.3062696116     1     1     6     6
 0.0234068413     1     2     1     2
 0.0234068413     1     2     2     1
 -0.0025602885     1     2     4     6
 -0.0027257205     1     2     5     6
 -0.0025602885     1     2     6     4
 -0.0027257205     1     2     6     5
 0.0234068413     1     3     1     3
 0.0234068413     1     3     3     1
 -0.0027257205     1     3     4     6
 0.0025602885     1     3     5     6
 -0.0027257205     1     3     6     4
 0.0025602885     1     3     6     5
 0.0338350205     1     4     1     4
 -0.0052643575     1     4     2     6
 -0.0056045118     1     4     3     6
 0.0338350205     1     4     4     1
 -0.0052643575     1     4     6     2
 -0.0056045118     1     4     6     3
 0.0338350205     1     5     1     5
 -0.0056045118     1     5     2     6
 0.0052643575     1     5     3     6
 0.0338350205     1     5     5     1
 -0.0056045118     1     5     6     2
 0.0052643575     1     5     6     3
 0.0146306648     1     6     1     6
 -0.0027685715     1     6     2     4
 -0.0029474616     1     6     2     5
 -0.0029474616     1     6     3     4
 0.0027685715     1     6     3     5
 -0.0027685715     1     6     4     2
 -0.0029474616     1     6     4     3
 -0.0029474616     1     6     5     2
 0.0027685715     1     6     5     3
 0.0146306648     1     6     6     1
 0.0234068413     2     1     1     2
 0.0234068413     2     1     2     1
 -0.0025602885     2     1     4     6
 -0.0027257205     2     1     5     6
 -0.0025602885     2     1     6     4
 -0.0027257205     2     1     6     5
 0.5035233981     2     2     1     1
 0.5776238396     2     2     2     2
 0.5310485880     2     2     3     3
 0.4704679846     2     2     4     4
 0.0166093097     2     2     4     5
 0.0166093097     2     2     5     4
 0.4725492560     2     2     5     5
 0.2816572500     2     2     6     6
 0.0232876258     2     3     2     3
 0.0232876258     2     3     3     2
 0.0166093097     2     3     4     4
 0.0010406357     2     3     4     5
 0.0010406357     2     3     5     4
 -0.0166093097     2     3     5     5
 -0.0027685715     2     4     1     6
 0.0658160681     2     4     2     4
 0.0567858459     2     4     2     5
 0.0567858459     2     4     3     4
 -0.0408626244     2     4     3     5
 0.0658160681     2     4     4     2
 0.0567858459     2     4     4     3
 0.0567858459     2     4     5     2
 -0.0408626244     2     4     5     3
 -0.0027685715     2     4     6     1
 -0.0029474616     2     5     1     6
 0.0567858459     2     5     2     4
 0.0729317616     2     5     2     5
 0.0479783179     2     5     3     4
 -0.0567858459     2     5     3     5
 0.0567858459     2     5     4     2
 0.0479783179     2     5     4     3
 0.0729317616     2     5     5     2
 -0.0567858459     2     5     5     3
 -0.0029474616     2     5     6     1
 -0.0052643575     2     6     1     4
 -0.0056045118     2     6     1     5
 0.0067626278     2     6     2     6
 -0.0052643575     2     6     4     1
 -0.0056045118     2     6     5     1
 0.0067626278     2     6     6     2
 0.0234068413     3     1     1     3
 0.0234068413     3     1     3     1
 -0.0027257205     3     1     4     6
 0.0025602885     3     1     5     6
 -0.0027257205     3     1     6     4
 0.0025602885     3     1     6     5
 0.0232876258     3     2     2     3
 0.0232876258     3     2     3     2
 0.0166093097     3     2     4     4
 0.0010406357     3     2     4     5
 0.0010406357     3     2     5     4
 -0.0166093097     3     2     5     5
 0.5035233981     3     3     1     1
 0.5310485880     3     3     2     2
 0.5776238396     3     3     3     3
 0.4725492560     3     3     4     4
 -0.0166093097     3     3     4     5
 -0.0166093097     3     3     5     4
 0.4704679846     3     3     5     5
 0.2816572500     3     3     6     6
 -0.0029474616     3     4     1     6
 0.0567858459     3     4     2     4
 0.0479783179     3     4     2     5
 0.0729317616     3     4     3     4
 -0.0567858459     3     4     3     5
 0.0567858459     3     4     4     2
 0.0729317616     3     4     4     3
 0.0479783179     3     4     5     2
 -0.0567858459     3     4     5     3
 -0.0029474616     3     4     6     1
 0.0027685715     3     5     1     6
 -0.0408626244     3     5     2     4
 -0.0567858459     3     5     2     5
 -0.0567858459     3     5     3     4
 0.0658160681     3     5     3     5
 -0.0408626244     3     5     4     2
 -0.0567858459     3     5     4     3
 -0.0567858459     3     5     5     2
 0.0658160681     3     5     5     3
 0.0027685715     3     5     6     1
 -0.0056045118     3     6     1     4
 0.0052643575     3     6     1     5
 0.0067626278     3     6     3     6
 -0.0056045118     3     6     4     1
 0.0052643575     3     6     5     1
 0.0067626278     3     6     6     3
 0.0338350205     4     1     1     4
 -0.0052643575     4     1     2     6
 -0.0056045118     4     1     3     6
 0.0338350205     4     1     4     1
 -0.0052643575     4     1     6     2
 -0.0056045118     4     1     6     3
 -0.0027685715     4     2     1     6
 0.0658160681     4     2     2     4
 0.0567858459     4     2     2     5
 0.0567858459     4     2     3     4
 -0.0408626244     4     2     3     5
 0.0658160681     4     2     4     2
 0.0567858459     4     2     4     3
 0.0567858459     4     2     5     2
 -0.0408626244     4     2     5     3
 -0.0027685715     4     2     6     1
 -0.0029474616     4     3     1     6
 0.0567858459     4     3     2     4
 0.0479783179     4     3     2     5
 0.0729317616     4     3     3     4
 -0.0567858459     4     3     3     5
 0.0567858459     4     3     4     2
 0.0729317616     4     3     4     3
 0.0479783179     4     3     5     2
 -0.0567858459     4     3     5     3
 -0.0029474616     4     3     6     1
 0.4624703344     4     4     1     1
 0.4704679846     4     4     2     2
 0.0166093097     4     4     2     3
 0.0166093097     4     4     3     2
 0.4725492560     4     4     3     3
 0.4471345378     4     4     4     4
 0.4140918874     4     4     5     5
 0.2813001209     4     4     6     6
 0.0166093097     4     5     2     2
 0.0010406357     4     5     2     3
 0.0010406357     4     5     3     2
 -0.0166093097     4     5     3     3
 0.0165213252     4     5     4     5
 0.0165213252     4     5     5     4
 -0.0025602885     4     6     1     2
 -0.0027257205     4     6     1     3
 -0.0025602885     4     6     2     1
 -0.0027257205     4     6     3     1
 0.0101881866     4     6     4     6
 0.0101881866     4     6     6     4
 0.0338350205     5     1     1     5
 -0.0056045118     5     1     2     6
 0.0052643575     5     1     3     6
 0.0338350205     5     1     5     1
 -0.0056045118     5     1     6     2
 0.0052643575     5     1     6     3
 -0.0029474616     5     2     1     6
 0.0567858459     5     2     2     4
 0.0729317616     5     2     2     5
 0.0479783179     5     2     3     4
 -0.0567858459     5     2     3     5
 0.0567858459     5     2     4     2
 0.0479783179     5     2     4     3
 0.0729317616     5     2     5     2
 -0.0567858459     5     2     5     3
 -0.0029474616     5     2     6     1
 0.0027685715     5     3     1     6
 -0.0408626244     5     3     2     4
 -0.0567858459     5     3     2     5
 -0.0567858459     5     3     3     4
 0.0658160681     5     3     3     5
 -0.0408626244     5     3     4     2
 -0.0567858459     5     3     4     3
 -0.0567858459     5     3     5     2
 0.0658160681     5     3     5     3
 0.0027685715     5     3     6     1
 0.0166093097     5     4     2     2
 0.0010406357     5     4     2     3
 0.0010406357     5     4     3     2
 -0.0166093097     5     4     3     3
 0.0165213252     5     4     4     5
 0.0165213252     5     4     5     4
 0.4624703344     5     5     1     1
 0.4725492560     5     5     2     2
 -0.0166093097     5     5     2     3
 -0.0166093097     5     5     3     2
 0.4704679846     5     5     3     3
 0.4140918874     5     5     4     4
 0.4471345378     5     5     5     5
 0.2813001209     5     5     6     6
 -0.0027257205     5     6     1     2
 0.0025602885     5     6     1     3
 -0.0027257205     5     6     2     1
 0.0025602885     5     6     3     1
 0.0101881866     5     6     5     6
 0.0101881866     5     6     6     5
 0.0146306648     6     1     1     6
 -0.0027685715     6     1     2     4
 -0.0029474616     6     1     2     5
 -0.0029474616     6     1     3     4
 0.0027685715     6     1     3     5
 -0.0027685715     6     1     4     2
 -0.0029474616     6     1     4     3
 -0.0029474616     6     1     5     2
 0.0027685715     6     1     5     3
 0.0146306648     6     1     6     1
 -0.0052643575     6     2     1     4
 -0.0056045118     6     2     1     5
 0.0067626278     6     2     2     6
 -0.0052643575     6     2     4     1
 -0.0056045118     6     2     5     1
 0.0067626278     6     2     6     2
 -0.0056045118     6     3     1     4
 0.0052643575     6     3     1     5
 0.0067626278     6     3     3     6
 -0.0056045118     6     3     4     1
 0.0052643575     6     3     5     1
 0.0067626278     6     3     6     3
 -0.0025602885     6     4     1     2
 -0.0027257205     6     4     1     3
 -0.0025602885     6     4     2     1
 -0.0027257205     6     4     3     1
 0.0101881866     6     4     4     6
 0.0101881866     6     4     6     4
 -0.0027257205     6     5     1     2
 0.0025602885     6     5     1     3
 -0.0027257205     6     5     2     1
 0.0025602885     6     5     3     1
 0.0101881866     6     5     5     6
 0.0101881866     6     5     6     5
 0.3062696116     6     6     1     1
 0.2816572500     6     6     2     2
 0.2816572500     6     6     3     3
 0.2813001209     6     6     4     4
 0.2813001209     6     6     5     5
 0.3034868657     6     6     6     6
0.0 0 0 0 0
 -3.1582237683     1     1     0     0
 -3.2135355040     2     2     0     0
 -3.2135355040     3     3     0     0
 -2.4748069759     4     4     0     0
 -2.4748069759     5     5     0     0
 -1.2851874703     6     6     0     0
0.0 0 0 0 0
 -3.1582237683     1     1     0     0
 -3.2135355040     2     2     0     0
 -3.2135355040     3     3     0     0
 -2.4748069759     4     4     0     0
 -2.4748069759     5     5     0     0
 -1.2851874703     6     6     0     0
-97.5392170473 0 0 0 0
