&FCI NORB= 13,NELEC= 14,MS2=0,
 ORBSYM=1,1,1,1,1,1,1,1,1,1,1,1,1
 ISYM=1,
&END
 0.1727025188     1     1     2     2
 -0.0000913747     1     1     2     4
 -0.0019381054     1     1     2    10
 0.0000000001     1     1     2    11
 0.5438360373     1     1     3     3
 -0.0000000014     1     1     3     4
 0.0021666489     1     1     3     5
 0.0000000001     1     1     3    10
 0.0727783654     1     1     3    11
 -0.0000913747     1     1     4     2
 -0.0000000014     1     1     4     3
 0.5477783141     1     1     4     4
 0.0000000002     1     1     4     5
 -0.0189585369     1     1     4    10
 -0.0000000003     1     1     4    11
 0.0021666489     1     1     5     3
 0.0000000002     1     1     5     4
 0.5053280443     1     1     5     5
 0.0000000013     1     1     5    10
 0.1730618942     1     1     5    11
 0.5142496946     1     1     6     6
 0.0000000008     1     1     6     8
 0.0000000010     1     1     6     9
 -0.2038655557     1     1     6    12
 0.0000472104     1     1     6    13
 0.5142496946     1     1     7     7
 -0.0000000011     1     1     7     8
 0.0000000009     1     1     7     9
 -0.0000472104     1     1     7    12
 -0.2038655557     1     1     7    13
 0.0000000008     1     1     8     6
 -0.0000000011     1     1     8     7
 0.5198378633     1     1     8     8
 -0.0000000007     1     1     8    12
 0.0000000004     1     1     8    13
 0.0000000010     1     1     9     6
 0.0000000009     1     1     9     7
 0.5198378633     1     1     9     9
 -0.0000000008     1     1     9    12
 -0.0000000002     1     1     9    13
 -0.0019381054     1     1    10     2
 0.0000000001     1     1    10     3
 -0.0189585369     1     1    10     4
 0.0000000013     1     1    10     5
 0.5355210670     1     1    10    10
 0.0000000008     1     1    10    11
 0.0000000001     1     1    11     2
 0.0727783654     1     1    11     3
 -0.0000000003     1     1    11     4
 0.1730618942     1     1    11     5
 0.0000000008     1     1    11    10
 0.5266816871     1     1    11    11
 -0.2038655557     1     1    12     6
 -0.0000472104     1     1    12     7
 -0.0000000007     1     1    12     8
 -0.0000000008     1     1    12     9
 0.5051036706     1     1    12    12
 0.0000472104     1     1    13     6
 -0.2038655557     1     1    13     7
 0.0000000004     1     1    13     8
 -0.0000000002     1     1    13     9
 0.5051036706     1     1    13    13
 -0.1727025188     1     2     2     1
 -0.0000312230     1     2     2     3
 -0.0018605350     1     2     2     5
 -0.0020455495     1     2     2    11
 0.3731228590     1     2     3     4
 -0.0155933369     1     2     3    10
 0.0000913747     1     2     4     1
 0.3731229238     1     2     4     3
 -0.0407393919     1     2     4     5
 0.0717230376     1     2     4    11
 -0.0407420200     1     2     5     4
 -0.3381238722     1     2     5    10
 0.0000000016     1     2     6     6
 -0.0000000004     1     2     6     7
 -0.2169460711     1     2     6     8
 -0.2710710631     1     2     6     9
 -0.0000000006     1     2     6    12
 0.0000000001     1     2     6    13
 -0.0000000004     1     2     7     6
 -0.0000000016     1     2     7     7
 0.2710710631     1     2     7     8
 -0.2169460711     1     2     7     9
 0.0000000001     1     2     7    12
 0.0000000006     1     2     7    13
 -0.2169328296     1     2     8     6
 0.2710545180     1     2     8     7
 -0.0000000015     1     2     8     9
 0.1289683730     1     2     8    12
 -0.1612206827     1     2     8    13
 -0.2710545180     1     2     9     6
 -0.2169328296     1     2     9     7
 -0.0000000015     1     2     9     8
 0.1612206827     1     2     9    12
 0.1289683730     1     2     9    13
 0.0019381054     1     2    10     1
 -0.0155919007     1     2    10     3
 -0.3380821015     1     2    10     5
 -0.2238743885     1     2    10    11
 -0.0000000001     1     2    11     1
 0.0717201613     1     2    11     4
 -0.2239208912     1     2    11    10
 -0.0000000006     1     2    12     6
 0.0000000001     1     2    12     7
 0.1289832837     1     2    12     8
 0.1612393223     1     2    12     9
 0.0000000003     1     2    12    12
 -0.0000000001     1     2    12    13
 0.0000000001     1     2    13     6
 0.0000000006     1     2    13     7
 -0.1612393223     1     2    13     8
 0.1289832837     1     2    13     9
 -0.0000000001     1     2    13    12
 -0.0000000003     1     2    13    13
 0.0000312230     1     3     2     2
 -0.0000000648     1     3     2     4
 -0.0000014362     1     3     2    10
 -0.5438360373     1     3     3     1
 -0.0010860069     1     3     3     5
 -0.0015750122     1     3     3    11
 0.0000000014     1     3     4     1
 -0.3731229238     1     3     4     2
 -0.0001003242     1     3     4     4
 -0.0017071909     1     3     4    10
 -0.0021666489     1     3     5     1
 -0.0173101642     1     3     5     5
 -0.0206383828     1     3     5    11
 -0.0184351122     1     3     6     6
 0.0229422158     1     3     6    12
 -0.0000053128     1     3     6    13
 -0.0184351122     1     3     7     7
 0.0000053128     1     3     7    12
 0.0229422158     1     3     7    13
 -0.0186729479     1     3     8     8
 -0.0186729479     1     3     9     9
 -0.0000000001     1     3    10     1
 0.0155919007     1     3    10     2
 -0.0009112520     1     3    10     4
 -0.0193847187     1     3    10    10
 -0.0727783654     1     3    11     1
 -0.0139968177     1     3    11     5
 -0.0172644099     1     3    11    11
 0.0154548601     1     3    12     6
 0.0000035789     1     3    12     7
 -0.0198419123     1     3    12    12
 -0.0000035789     1     3    13     6
 0.0154548601     1     3    13     7
 -0.0198419123     1     3    13    13
 0.0000913747     1     4     2     1
 0.0000000648     1     4     2     3
 0.0000026281     1     4     2     5
 0.0000028763     1     4     2    11
 0.0000000014     1     4     3     1
 -0.3731228590     1     4     3     2
 -0.0007959389     1     4     3    10
 -0.5477783141     1     4     4     1
 0.0001003242     1     4     4     3
 -0.0000623834     1     4     4     5
 -0.0000392297     1     4     4    11
 -0.0000000002     1     4     5     1
 0.0407420200     1     4     5     2
 0.0183776796     1     4     5    10
 0.0116147676     1     4     6     8
 0.0145124886     1     4     6     9
 0.0000000001     1     4     7     7
 -0.0145124886     1     4     7     8
 0.0116147676     1     4     7     9
 -0.0000000001     1     4     7    13
 0.0117371175     1     4     8     6
 -0.0146653631     1     4     8     7
 0.0000000001     1     4     8     9
 -0.0146375246     1     4     8    12
 0.0182980654     1     4     8    13
 0.0146653631     1     4     9     6
 0.0117371175     1     4     9     7
 0.0000000001     1     4     9     8
 -0.0182980654     1     4     9    12
 -0.0146375246     1     4     9    13
 0.0189585369     1     4    10     1
 0.0009112520     1     4    10     3
 0.0184002861     1     4    10     5
 0.0223192473     1     4    10    11
 0.0000000003     1     4    11     1
 -0.0717201613     1     4    11     2
 0.0156426883     1     4    11    10
 -0.0099882280     1     4    12     8
 -0.0124860764     1     4    12     9
 0.0124860764     1     4    13     8
 -0.0099882280     1     4    13     9
 0.0018605350     1     5     2     2
 -0.0000026281     1     5     2     4
 -0.0000417707     1     5     2    10
 -0.0021666489     1     5     3     1
 0.0010860069     1     5     3     3
 -0.0066415651     1     5     3    11
 -0.0000000002     1     5     4     1
 0.0407393919     1     5     4     2
 0.0000623834     1     5     4     4
 -0.0000226065     1     5     4    10
 -0.5053280443     1     5     5     1
 0.0173101642     1     5     5     3
 0.0031202268     1     5     5    11
 0.0017095231     1     5     6     6
 -0.0009008290     1     5     6    12
 0.0000002086     1     5     6    13
 0.0017095231     1     5     7     7
 -0.0000002086     1     5     7    12
 -0.0009008290     1     5     7    13
 0.0017303805     1     5     8     8
 0.0017303805     1     5     9     9
 -0.0000000013     1     5    10     1
 0.3380821015     1     5    10     2
 -0.0184002861     1     5    10     4
 0.0037387739     1     5    10    10
 -0.1730618942     1     5    11     1
 0.0139968177     1     5    11     3
 0.0098343516     1     5    11    11
 -0.0009988571     1     5    12     6
 -0.0000002313     1     5    12     7
 0.0021783684     1     5    12    12
 0.0000002313     1     5    13     6
 -0.0009988571     1     5    13     7
 0.0021783684     1     5    13    13
 -0.0000132415     1     6     2     8
 -0.0000165451     1     6     2     9
 0.0074873557     1     6     3    12
 -0.0000017339     1     6     3    13
 -0.0001223499     1     6     4     8
 -0.0001528745     1     6     4     9
 0.0000980281     1     6     5    12
 -0.0000000227     1     6     5    13
 -0.5142496946     1     6     6     1
 -0.0000000016     1     6     6     2
 0.0184351122     1     6     6     3
 -0.0017095231     1     6     6     5
 0.0037812883     1     6     6    11
 0.0000000004     1     6     7     2
 -0.0000000008     1     6     8     1
 0.2169328296     1     6     8     2
 -0.0117371175     1     6     8     4
 0.0013653522     1     6     8    10
 -0.0000000010     1     6     9     1
 0.2710545180     1     6     9     2
 -0.0146653631     1     6     9     4
 0.0017059884     1     6     9    10
 -0.0000028478     1     6    10     8
 -0.0000035582     1     6    10     9
 -0.0008150380     1     6    11    12
 0.0000001888     1     6    11    13
 0.2038655557     1     6    12     1
 0.0000000006     1     6    12     2
 -0.0154548601     1     6    12     3
 0.0009988571     1     6    12     5
 -0.0071747906     1     6    12    11
 -0.0000472104     1     6    13     1
 -0.0000000001     1     6    13     2
 0.0000035789     1     6    13     3
 -0.0000002313     1     6    13     5
 0.0000016615     1     6    13    11
 0.0000165451     1     7     2     8
 -0.0000132415     1     7     2     9
 0.0000017339     1     7     3    12
 0.0074873557     1     7     3    13
 0.0001528745     1     7     4     8
 -0.0001223499     1     7     4     9
 -0.0000000001     1     7     4    13
 0.0000000227     1     7     5    12
 0.0000980281     1     7     5    13
 0.0000000004     1     7     6     2
 -0.5142496946     1     7     7     1
 0.0000000016     1     7     7     2
 0.0184351122     1     7     7     3
 -0.0000000001     1     7     7     4
 -0.0017095231     1     7     7     5
 0.0037812883     1     7     7    11
 0.0000000011     1     7     8     1
 -0.2710545180     1     7     8     2
 0.0146653631     1     7     8     4
 -0.0017059884     1     7     8    10
 -0.0000000009     1     7     9     1
 0.2169328296     1     7     9     2
 -0.0117371175     1     7     9     4
 0.0013653522     1     7     9    10
 0.0000035582     1     7    10     8
 -0.0000028478     1     7    10     9
 -0.0000001888     1     7    11    12
 -0.0008150380     1     7    11    13
 0.0000472104     1     7    12     1
 -0.0000000001     1     7    12     2
 -0.0000035789     1     7    12     3
 0.0000002313     1     7    12     5
 -0.0000016615     1     7    12    11
 0.2038655557     1     7    13     1
 -0.0000000006     1     7    13     2
 -0.0154548601     1     7    13     3
 0.0009988571     1     7    13     5
 -0.0071747906     1     7    13    11
 0.0000132415     1     8     2     6
 -0.0000165451     1     8     2     7
 -0.0000149107     1     8     2    12
 0.0000186396     1     8     2    13
 0.0001223499     1     8     4     6
 -0.0001528745     1     8     4     7
 -0.0046492966     1     8     4    12
 0.0058119890     1     8     4    13
 -0.0000000008     1     8     6     1
 0.2169460711     1     8     6     2
 -0.0116147676     1     8     6     4
 0.0013682000     1     8     6    10
 0.0000000011     1     8     7     1
 -0.2710710631     1     8     7     2
 0.0145124886     1     8     7     4
 -0.0017095466     1     8     7    10
 -0.5198378633     1     8     8     1
 0.0186729479     1     8     8     3
 -0.0017303805     1     8     8     5
 0.0043281148     1     8     8    11
 0.0000000015     1     8     9     2
 -0.0000000001     1     8     9     4
 0.0000028478     1     8    10     6
 -0.0000035582     1     8    10     7
 0.0002599376     1     8    10    12
 -0.0003249426     1     8    10    13
 0.0000000007     1     8    12     1
 -0.1289832837     1     8    12     2
 0.0099882280     1     8    12     4
 -0.0008309348     1     8    12    10
 -0.0000000004     1     8    13     1
 0.1612393223     1     8    13     2
 -0.0124860764     1     8    13     4
 0.0010387343     1     8    13    10
 0.0000165451     1     9     2     6
 0.0000132415     1     9     2     7
 -0.0000186396     1     9     2    12
 -0.0000149107     1     9     2    13
 0.0001528745     1     9     4     6
 0.0001223499     1     9     4     7
 -0.0058119890     1     9     4    12
 -0.0046492966     1     9     4    13
 -0.0000000010     1     9     6     1
 0.2710710631     1     9     6     2
 -0.0145124886     1     9     6     4
 0.0017095466     1     9     6    10
 -0.0000000009     1     9     7     1
 0.2169460711     1     9     7     2
 -0.0116147676     1     9     7     4
 0.0013682000     1     9     7    10
 0.0000000015     1     9     8     2
 -0.0000000001     1     9     8     4
 -0.5198378633     1     9     9     1
 0.0186729479     1     9     9     3
 -0.0017303805     1     9     9     5
 0.0043281148     1     9     9    11
 0.0000035582     1     9    10     6
 0.0000028478     1     9    10     7
 0.0003249426     1     9    10    12
 0.0002599376     1     9    10    13
 0.0000000008     1     9    12     1
 -0.1612393223     1     9    12     2
 0.0124860764     1     9    12     4
 -0.0010387343     1     9    12    10
 0.0000000002     1     9    13     1
 -0.1289832837     1     9    13     2
 0.0099882280     1     9    13     4
 -0.0008309348     1     9    13    10
 0.0019381054     1    10     2     1
 0.0000014362     1    10     2     3
 0.0000417707     1    10     2     5
 0.0000465027     1    10     2    11
 -0.0000000001     1    10     3     1
 0.0155933369     1    10     3     2
 0.0007959389     1    10     3     4
 0.0189585369     1    10     4     1
 0.0017071909     1    10     4     3
 0.0000226065     1    10     4     5
 0.0066765590     1    10     4    11
 -0.0000000013     1    10     5     1
 0.3381238722     1    10     5     2
 -0.0183776796     1    10     5     4
 -0.0013682000     1    10     6     8
 -0.0017095466     1    10     6     9
 0.0017095466     1    10     7     8
 -0.0013682000     1    10     7     9
 -0.0013653522     1    10     8     6
 0.0017059884     1    10     8     7
 0.0010908724     1    10     8    12
 -0.0013636769     1    10     8    13
 -0.0017059884     1    10     9     6
 -0.0013653522     1    10     9     7
 0.0013636769     1    10     9    12
 0.0010908724     1    10     9    13
 -0.5355210670     1    10    10     1
 0.0193847187     1    10    10     3
 -0.0037387739     1    10    10     5
 0.0024186849     1    10    10    11
 -0.0000000008     1    10    11     1
 0.2239208912     1    10    11     2
 -0.0156426883     1    10    11     4
 0.0008309348     1    10    12     8
 0.0010387343     1    10    12     9
 -0.0010387343     1    10    13     8
 0.0008309348     1    10    13     9
 -0.0000000001     1    11     2     1
 0.0020455495     1    11     2     2
 -0.0000028763     1    11     2     4
 -0.0000465027     1    11     2    10
 -0.0727783654     1    11     3     1
 0.0015750122     1    11     3     3
 0.0066415651     1    11     3     5
 0.0000000003     1    11     4     1
 -0.0717230376     1    11     4     2
 0.0000392297     1    11     4     4
 -0.0066765590     1    11     4    10
 -0.1730618942     1    11     5     1
 0.0206383828     1    11     5     3
 -0.0031202268     1    11     5     5
 -0.0037812883     1    11     6     6
 0.0063597526     1    11     6    12
 -0.0000014727     1    11     6    13
 -0.0037812883     1    11     7     7
 0.0000014727     1    11     7    12
 0.0063597526     1    11     7    13
 -0.0043281148     1    11     8     8
 -0.0043281148     1    11     9     9
 -0.0000000008     1    11    10     1
 0.2238743885     1    11    10     2
 -0.0223192473     1    11    10     4
 -0.0024186849     1    11    10    10
 -0.5266816871     1    11    11     1
 0.0172644099     1    11    11     3
 -0.0098343516     1    11    11     5
 0.0071747906     1    11    12     6
 0.0000016615     1    11    12     7
 -0.0080910912     1    11    12    12
 -0.0000016615     1    11    13     6
 0.0071747906     1    11    13     7
 -0.0080910912     1    11    13    13
 0.0000149107     1    12     2     8
 0.0000186396     1    12     2     9
 -0.0074873557     1    12     3     6
 -0.0000017339     1    12     3     7
 0.0046492966     1    12     4     8
 0.0058119890     1    12     4     9
 -0.0000980281     1    12     5     6
 -0.0000000227     1    12     5     7
 0.2038655557     1    12     6     1
 0.0000000006     1    12     6     2
 -0.0229422158     1    12     6     3
 0.0009008290     1    12     6     5
 -0.0063597526     1    12     6    11
 0.0000472104     1    12     7     1
 -0.0000000001     1    12     7     2
 -0.0000053128     1    12     7     3
 0.0000002086     1    12     7     5
 -0.0000014727     1    12     7    11
 0.0000000007     1    12     8     1
 -0.1289683730     1    12     8     2
 0.0146375246     1    12     8     4
 -0.0010908724     1    12     8    10
 0.0000000008     1    12     9     1
 -0.1612206827     1    12     9     2
 0.0182980654     1    12     9     4
 -0.0013636769     1    12     9    10
 -0.0002599376     1    12    10     8
 -0.0003249426     1    12    10     9
 0.0008150380     1    12    11     6
 0.0000001888     1    12    11     7
 -0.5051036706     1    12    12     1
 -0.0000000003     1    12    12     2
 0.0198419123     1    12    12     3
 -0.0021783684     1    12    12     5
 0.0080910912     1    12    12    11
 0.0000000001     1    12    13     2
 -0.0000186396     1    13     2     8
 0.0000149107     1    13     2     9
 0.0000017339     1    13     3     6
 -0.0074873557     1    13     3     7
 0.0000000001     1    13     4     7
 -0.0058119890     1    13     4     8
 0.0046492966     1    13     4     9
 0.0000000227     1    13     5     6
 -0.0000980281     1    13     5     7
 -0.0000472104     1    13     6     1
 -0.0000000001     1    13     6     2
 0.0000053128     1    13     6     3
 -0.0000002086     1    13     6     5
 0.0000014727     1    13     6    11
 0.2038655557     1    13     7     1
 -0.0000000006     1    13     7     2
 -0.0229422158     1    13     7     3
 0.0000000001     1    13     7     4
 0.0009008290     1    13     7     5
 -0.0063597526     1    13     7    11
 -0.0000000004     1    13     8     1
 0.1612206827     1    13     8     2
 -0.0182980654     1    13     8     4
 0.0013636769     1    13     8    10
 0.0000000002     1    13     9     1
 -0.1289683730     1    13     9     2
 0.0146375246     1    13     9     4
 -0.0010908724     1    13     9    10
 0.0003249426     1    13    10     8
 -0.0002599376     1    13    10     9
 -0.0000001888     1    13    11     6
 0.0008150380     1    13    11     7
 0.0000000001     1    13    12     2
 -0.5051036706     1    13    13     1
 0.0000000003     1    13    13     2
 0.0198419123     1    13    13     3
 -0.0021783684     1    13    13     5
 0.0080910912     1    13    13    11
 -0.1727025188     2     1     1     2
 0.0000913747     2     1     1     4
 0.0019381054     2     1     1    10
 -0.0000000001     2     1     1    11
 -0.0000312230     2     1     3     2
 0.3731229238     2     1     3     4
 -0.0155919007     2     1     3    10
 0.3731228590     2     1     4     3
 -0.0407420200     2     1     4     5
 0.0717201613     2     1     4    11
 -0.0018605350     2     1     5     2
 -0.0407393919     2     1     5     4
 -0.3380821015     2     1     5    10
 0.0000000016     2     1     6     6
 -0.0000000004     2     1     6     7
 -0.2169328296     2     1     6     8
 -0.2710545180     2     1     6     9
 -0.0000000006     2     1     6    12
 0.0000000001     2     1     6    13
 -0.0000000004     2     1     7     6
 -0.0000000016     2     1     7     7
 0.2710545180     2     1     7     8
 -0.2169328296     2     1     7     9
 0.0000000001     2     1     7    12
 0.0000000006     2     1     7    13
 -0.2169460711     2     1     8     6
 0.2710710631     2     1     8     7
 -0.0000000015     2     1     8     9
 0.1289832837     2     1     8    12
 -0.1612393223     2     1     8    13
 -0.2710710631     2     1     9     6
 -0.2169460711     2     1     9     7
 -0.0000000015     2     1     9     8
 0.1612393223     2     1     9    12
 0.1289832837     2     1     9    13
 -0.0155933369     2     1    10     3
 -0.3381238722     2     1    10     5
 -0.2239208912     2     1    10    11
 -0.0020455495     2     1    11     2
 0.0717230376     2     1    11     4
 -0.2238743885     2     1    11    10
 -0.0000000006     2     1    12     6
 0.0000000001     2     1    12     7
 0.1289683730     2     1    12     8
 0.1612206827     2     1    12     9
 0.0000000003     2     1    12    12
 -0.0000000001     2     1    12    13
 0.0000000001     2     1    13     6
 0.0000000006     2     1    13     7
 -0.1612206827     2     1    13     8
 0.1289683730     2     1    13     9
 -0.0000000001     2     1    13    12
 -0.0000000003     2     1    13    13
 0.1727025188     2     2     1     1
 0.0000312230     2     2     1     3
 0.0018605350     2     2     1     5
 0.0020455495     2     2     1    11
 0.0000312230     2     2     3     1
 0.5438363036     2     2     3     3
 0.0000000014     2     2     3     4
 0.0021689484     2     2     3     5
 -0.0000000001     2     2     3    10
 0.0727809971     2     2     3    11
 0.0000000014     2     2     4     3
 0.5477783142     2     2     4     4
 -0.0000000002     2     2     4     5
 -0.0189624362     2     2     4    10
 0.0000000003     2     2     4    11
 0.0018605350     2     2     5     1
 0.0021689484     2     2     5     3
 -0.0000000002     2     2     5     4
 0.5053673115     2     2     5     5
 -0.0000000013     2     2     5    10
 0.1731060089     2     2     5    11
 0.5142712786     2     2     6     6
 -0.0000000009     2     2     6     8
 -0.0000000011     2     2     6     9
 -0.2038897249     2     2     6    12
 0.0000472160     2     2     6    13
 0.5142712786     2     2     7     7
 0.0000000010     2     2     7     8
 -0.0000000008     2     2     7     9
 -0.0000472160     2     2     7    12
 -0.2038897249     2     2     7    13
 -0.0000000009     2     2     8     6
 0.0000000010     2     2     8     7
 0.5198170640     2     2     8     8
 0.0000000002     2     2     8    12
 -0.0000000008     2     2     8    13
 -0.0000000011     2     2     9     6
 -0.0000000008     2     2     9     7
 0.5198170640     2     2     9     9
 0.0000000004     2     2     9    12
 0.0000000007     2     2     9    13
 -0.0000000001     2     2    10     3
 -0.0189624362     2     2    10     4
 -0.0000000013     2     2    10     5
 0.5354769128     2     2    10    10
 -0.0000000008     2     2    10    11
 0.0020455495     2     2    11     1
 0.0727809971     2     2    11     3
 0.0000000003     2     2    11     4
 0.1731060089     2     2    11     5
 -0.0000000008     2     2    11    10
 0.5267313258     2     2    11    11
 -0.2038897249     2     2    12     6
 -0.0000472160     2     2    12     7
 0.0000000002     2     2    12     8
 0.0000000004     2     2    12     9
 0.5051307771     2     2    12    12
 0.0000472160     2     2    13     6
 -0.2038897249     2     2    13     7
 -0.0000000008     2     2    13     8
 0.0000000007     2     2    13     9
 0.5051307771     2     2    13    13
 -0.0000312230     2     3     1     2
 0.0000000648     2     3     1     4
 0.0000014362     2     3     1    10
 -0.5438363036     2     3     3     2
 0.0000083812     2     3     3     4
 0.0012550000     2     3     3    10
 -0.3731228590     2     3     4     1
 -0.0000000014     2     3     4     2
 0.0016890238     2     3     4     5
 0.0015715951     2     3     4    11
 -0.0021689484     2     3     5     2
 0.0008797094     2     3     5     4
 0.0188082579     2     3     5    10
 -0.0000000001     2     3     6     6
 0.0117105809     2     3     6     8
 0.0146322061     2     3     6     9
 0.0000000001     2     3     6    12
 -0.0146322061     2     3     7     8
 0.0117105809     2     3     7     9
 0.0115075140     2     3     8     6
 -0.0143784769     2     3     8     7
 0.0000000001     2     3     8     9
 -0.0143164586     2     3     8    12
 0.0178967073     2     3     8    13
 0.0143784769     2     3     9     6
 0.0115075140     2     3     9     7
 0.0000000001     2     3     9     8
 -0.0178967073     2     3     9    12
 -0.0143164586     2     3     9    13
 0.0155933369     2     3    10     1
 0.0000000001     2     3    10     2
 0.0178830948     2     3    10     5
 0.0213931887     2     3    10    11
 -0.0727809971     2     3    11     2
 0.0007021831     2     3    11     4
 0.0152276104     2     3    11    10
 -0.0098063873     2     3    12     8
 -0.0122587609     2     3    12     9
 0.0122587609     2     3    13     8
 -0.0098063873     2     3    13     9
 -0.0000913747     2     4     1     1
 -0.0000000648     2     4     1     3
 -0.0000026281     2     4     1     5
 -0.0000028763     2     4     1    11
 -0.3731229238     2     4     3     1
 -0.0000000014     2     4     3     2
 -0.0000083812     2     4     3     3
 0.0008093144     2     4     3     5
 0.0008694120     2     4     3    11
 -0.5477783142     2     4     4     2
 0.0001341616     2     4     4    10
 0.0407393919     2     4     5     1
 0.0000000002     2     4     5     2
 -0.0008797094     2     4     5     3
 -0.0169651351     2     4     5     5
 -0.0204121231     2     4     5    11
 -0.0183952693     2     4     6     6
 0.0228628324     2     4     6    12
 -0.0000052945     2     4     6    13
 -0.0183952693     2     4     7     7
 0.0000052945     2     4     7    12
 0.0228628324     2     4     7    13
 -0.0191487966     2     4     8     8
 -0.0191487966     2     4     9     9
 0.0189624362     2     4    10     2
 -0.0201571584     2     4    10    10
 -0.0717230376     2     4    11     1
 -0.0000000003     2     4    11     2
 -0.0007021831     2     4    11     3
 -0.0142679198     2     4    11     5
 -0.0180976182     2     4    11    11
 0.0157512903     2     4    12     6
 0.0000036477     2     4    12     7
 -0.0202622166     2     4    12    12
 -0.0000036477     2     4    13     6
 0.0157512903     2     4    13     7
 -0.0202622166     2     4    13    13
 -0.0018605350     2     5     1     2
 0.0000026281     2     5     1     4
 0.0000417707     2     5     1    10
 -0.0021689484     2     5     3     2
 -0.0008093144     2     5     3     4
 0.0009251631     2     5     3    10
 0.0407420200     2     5     4     1
 0.0000000002     2     5     4     2
 -0.0016890238     2     5     4     3
 -0.0061442033     2     5     4    11
 -0.5053673115     2     5     5     2
 0.0169651351     2     5     5     4
 0.0006003147     2     5     5    10
 0.0000876035     2     5     6     8
 0.0001094594     2     5     6     9
 -0.0001094594     2     5     7     8
 0.0000876035     2     5     7     9
 -0.0000363468     2     5     8     6
 0.0000454148     2     5     8     7
 0.0006613086     2     5     8    12
 -0.0008266881     2     5     8    13
 -0.0000454148     2     5     9     6
 -0.0000363468     2     5     9     7
 0.0008266881     2     5     9    12
 0.0006613086     2     5     9    13
 0.3381238722     2     5    10     1
 0.0000000013     2     5    10     2
 -0.0178830948     2     5    10     3
 -0.0062467343     2     5    10    11
 -0.1731060089     2     5    11     2
 0.0142679198     2     5    11     4
 -0.0023474640     2     5    11    10
 0.0005714611     2     5    12     8
 0.0007143716     2     5    12     9
 -0.0007143716     2     5    13     8
 0.0005714611     2     5    13     9
 0.0000132415     2     6     1     8
 0.0000165451     2     6     1     9
 0.0002030669     2     6     3     8
 0.0002537292     2     6     3     9
 0.0000000001     2     6     3    12
 0.0071115421     2     6     4    12
 -0.0000016468     2     6     4    13
 0.0001239503     2     6     5     8
 0.0001548742     2     6     5     9
 -0.0000000016     2     6     6     1
 -0.5142712786     2     6     6     2
 0.0000000001     2     6     6     3
 0.0183952693     2     6     6     4
 -0.0002129131     2     6     6    10
 0.0000000004     2     6     7     1
 0.2169460711     2     6     8     1
 0.0000000009     2     6     8     2
 -0.0115075140     2     6     8     3
 0.0000363468     2     6     8     5
 -0.0037917734     2     6     8    11
 0.2710710631     2     6     9     1
 0.0000000011     2     6     9     2
 -0.0143784769     2     6     9     3
 0.0000454148     2     6     9     5
 -0.0047377675     2     6     9    11
 -0.0004274328     2     6    10    12
 0.0000000990     2     6    10    13
 -0.0000885449     2     6    11     8
 -0.0001106356     2     6    11     9
 0.0000000006     2     6    12     1
 0.2038897249     2     6    12     2
 -0.0157512903     2     6    12     4
 0.0012200375     2     6    12    10
 -0.0000000001     2     6    13     1
 -0.0000472160     2     6    13     2
 0.0000036477     2     6    13     4
 -0.0000002825     2     6    13    10