&FCI NORB= 19,NELEC= 14,MS2=0,
 ORBSYM=1,1,1,1,1,1,1,1,1,1,1,1,1,1,1,1,1,1,1
 ISYM=1,
&END
 0.2545218452     1     1     2     2
 -0.0006052539     1     1     2     4
 0.0000000002     1     1     2     5
 -0.0042578704     1     1     2    10
 0.0038770909     1     1     2    13
 -0.0000000001     1     1     2    14
 -0.0000000003     1     1     2    17
 -0.0019506590     1     1     2    18
 0.0000000001     1     1     2    19
 0.5820631640     1     1     3     3
 -0.0000000381     1     1     3     4
 0.0105523728     1     1     3     5
 0.0000000087     1     1     3    10
 0.0000000080     1     1     3    13
 0.1443643297     1     1     3    14
 -0.0776438419     1     1     3    17
 0.0000000135     1     1     3    18
 0.0142704569     1     1     3    19
 -0.0006052539     1     1     4     2
 -0.0000000381     1     1     4     3
 0.5876264768     1     1     4     4
 0.0000000131     1     1     4     5
 -0.0418668249     1     1     4    10
 -0.1159478912     1     1     4    13
 -0.0000000189     1     1     4    14
 0.0000000063     1     1     4    17
 -0.1117156834     1     1     4    18
 0.0000000004     1     1     4    19
 0.0000000002     1     1     5     2
 0.0105523728     1     1     5     3
 0.0000000131     1     1     5     4
 0.5643924531     1     1     5     5
 0.0000000352     1     1     5    10
 -0.0000000200     1     1     5    13
 -0.1044945002     1     1     5    14
 -0.1693158827     1     1     5    17
 0.0000000051     1     1     5    18
 0.0161424448     1     1     5    19
 0.5447958199     1     1     6     6
 -0.0000000044     1     1     6     8
 -0.0000000361     1     1     6     9
 0.2025327989     1     1     6    11
 0.0201346558     1     1     6    12
 0.0000000210     1     1     6    15
 0.0000000004     1     1     6    16
 0.5447958199     1     1     7     7
 -0.0000000361     1     1     7     8
 0.0000000044     1     1     7     9
 -0.0201346558     1     1     7    11
 0.2025327989     1     1     7    12
 -0.0000000004     1     1     7    15
 0.0000000210     1     1     7    16
 -0.0000000044     1     1     8     6
 -0.0000000361     1     1     8     7
 0.5640563972     1     1     8     8
 -0.0000000007     1     1     8    11
 -0.0000000255     1     1     8    12
 -0.0225116623     1     1     8    15
 -0.2093987322     1     1     8    16
 -0.0000000361     1     1     9     6
 0.0000000044     1     1     9     7
 0.5640563972     1     1     9     9
 -0.0000000255     1     1     9    11
 0.0000000007     1     1     9    12
 -0.2093987322     1     1     9    15
 0.0225116623     1     1     9    16
 -0.0042578704     1     1    10     2
 0.0000000087     1     1    10     3
 -0.0418668249     1     1    10     4
 0.0000000352     1     1    10     5
 0.6031735206     1     1    10    10
 -0.1723666616     1     1    10    13
 -0.0000000017     1     1    10    14
 -0.0000000281     1     1    10    17
 0.1123523502     1     1    10    18
 -0.0000000069     1     1    10    19
 0.2025327989     1     1    11     6
 -0.0201346558     1     1    11     7
 -0.0000000007     1     1    11     8
 -0.0000000255     1     1    11     9
 0.5518270868     1     1    11    11
 0.0000000352     1     1    11    15
 -0.0000000029     1     1    11    16
 0.0201346558     1     1    12     6
 0.2025327989     1     1    12     7
 -0.0000000255     1     1    12     8
 0.0000000007     1     1    12     9
 0.5518270868     1     1    12    12
 0.0000000029     1     1    12    15
 0.0000000352     1     1    12    16
 0.0038770909     1     1    13     2
 0.0000000080     1     1    13     3
 -0.1159478912     1     1    13     4
 -0.0000000200     1     1    13     5
 -0.1723666616     1     1    13    10
 0.4919933158     1     1    13    13
 0.0000000272     1     1    13    14
 0.0000000226     1     1    13    17
 -0.0137138814     1     1    13    18
 -0.0000000005     1     1    13    19
 -0.0000000001     1     1    14     2
 0.1443643297     1     1    14     3
 -0.0000000189     1     1    14     4
 -0.1044945002     1     1    14     5
 -0.0000000017     1     1    14    10
 0.0000000272     1     1    14    13
 0.4671944796     1     1    14    14
 -0.0072021331     1     1    14    17
 0.0000000139     1     1    14    18
 -0.0003743402     1     1    14    19
 0.0000000210     1     1    15     6
 -0.0000000004     1     1    15     7
 -0.0225116623     1     1    15     8
 -0.2093987322     1     1    15     9
 0.0000000352     1     1    15    11
 0.0000000029     1     1    15    12
 0.5262046850     1     1    15    15
 0.0000000004     1     1    16     6
 0.0000000210     1     1    16     7
 -0.2093987322     1     1    16     8
 0.0225116623     1     1    16     9
 -0.0000000029     1     1    16    11
 0.0000000352     1     1    16    12
 0.5262046850     1     1    16    16
 -0.0000000003     1     1    17     2
 -0.0776438419     1     1    17     3
 0.0000000063     1     1    17     4
 -0.1693158827     1     1    17     5
 -0.0000000281     1     1    17    10
 0.0000000226     1     1    17    13
 -0.0072021331     1     1    17    14
 0.5937113263     1     1    17    17
 -0.0000000210     1     1    17    18
 0.0172425631     1     1    17    19
 -0.0019506590     1     1    18     2
 0.0000000135     1     1    18     3
 -0.1117156834     1     1    18     4
 0.0000000051     1     1    18     5
 0.1123523502     1     1    18    10
 -0.0137138814     1     1    18    13
 0.0000000139     1     1    18    14
 -0.0000000210     1     1    18    17
 0.4858991147     1     1    18    18
 0.0000000119     1     1    18    19
 0.0000000001     1     1    19     2
 0.0142704569     1     1    19     3
 0.0000000004     1     1    19     4
 0.0161424448     1     1    19     5
 -0.0000000069     1     1    19    10
 -0.0000000005     1     1    19    13
 -0.0003743402     1     1    19    14
 0.0172425631     1     1    19    17
 0.0000000119     1     1    19    18
 0.5110562375     1     1    19    19
 -0.2545218452     1     2     2     1
 -0.0003891436     1     2     2     3
 -0.0000000001     1     2     2     4
 -0.0041804745     1     2     2     5
 -0.0000000003     1     2     2    10
 0.0000000002     1     2     2    13
 0.0017055503     1     2     2    14
 0.0046107577     1     2     2    17
 -0.0000000001     1     2     2    18
 -0.0001355400     1     2     2    19
 0.3242666217     1     2     3     4
 -0.0735771923     1     2     3    10
 -0.0676152182     1     2     3    13
 -0.1150484664     1     2     3    18
 0.0006052539     1     2     4     1
 0.3242694663     1     2     4     3
 -0.1114642102     1     2     4     5
 0.1611948582     1     2     4    14
 -0.0537976527     1     2     4    17
 -0.0036022619     1     2     4    19
 -0.0000000002     1     2     5     1
 -0.1114892023     1     2     5     4
 -0.2987979317     1     2     5    10
 0.1699922361     1     2     5    13
 -0.0437095711     1     2     5    18
 0.0380242444     1     2     6     8
 0.3066973260     1     2     6     9
 -0.1786670307     1     2     6    15
 -0.0029045585     1     2     6    16
 0.3066973260     1     2     7     8
 -0.0380242444     1     2     7     9
 0.0029045585     1     2     7    15
 -0.1786670307     1     2     7    16
 0.0380158268     1     2     8     6
 0.3066294306     1     2     8     7
 0.0052641816     1     2     8    11
 0.2169336730     1     2     8    12
 0.3066294306     1     2     9     6
 -0.0380158268     1     2     9     7
 0.2169336730     1     2     9    11
 -0.0052641816     1     2     9    12
 0.0042578704     1     2    10     1
 -0.0735558801     1     2    10     3
 -0.2986560483     1     2    10     5
 0.0147279042     1     2    10    14
 0.2384504602     1     2    10    17
 0.0585929039     1     2    10    19
 0.0052661384     1     2    11     8
 0.2170143109     1     2    11     9
 -0.2987950195     1     2    11    15
 0.0248069465     1     2    11    16
 0.2170143109     1     2    12     8
 -0.0052661384     1     2    12     9
 -0.0248069465     1     2    12    15
 -0.2987950195     1     2    12    16
 -0.0038770909     1     2    13     1
 -0.0676350946     1     2    13     3
 0.1698624186     1     2    13     5
 -0.0000000001     1     2    13    13
 -0.2308084482     1     2    13    14
 -0.1916665016     1     2    13    17
 0.0047529001     1     2    13    19
 0.0000000001     1     2    14     1
 0.1612028722     1     2    14     4
 0.0147824322     1     2    14    10
 -0.2308577448     1     2    14    13
 0.0000000001     1     2    14    14
 -0.1179656040     1     2    14    18
 -0.1785890983     1     2    15     6
 0.0029032916     1     2    15     7
 -0.2987025304     1     2    15    11
 -0.0247992678     1     2    15    12
 -0.0029032916     1     2    16     6
 -0.1785890983     1     2    16     7
 0.0247992678     1     2    16    11
 -0.2987025304     1     2    16    12
 0.0000000003     1     2    17     1
 -0.0537756464     1     2    17     4
 0.2386166773     1     2    17    10
 -0.1918169956     1     2    17    13
 0.1780229052     1     2    17    18
 0.0019506590     1     2    18     1
 -0.1150373170     1     2    18     3
 -0.0436430130     1     2    18     5
 -0.1179899910     1     2    18    14
 0.1779464044     1     2    18    17
 -0.1008129652     1     2    18    19
 -0.0000000001     1     2    19     1
 -0.0036038499     1     2    19     4
 0.0585819074     1     2    19    10
 0.0047632693     1     2    19    13
 -0.1008181262     1     2    19    18
 0.0003891436     1     3     2     2
 -0.0000025880     1     3     2     4
 -0.0000212402     1     3     2    10
 0.0000191550     1     3     2    13
 -0.0000100156     1     3     2    18
 -0.5820631640     1     3     3     1
 -0.0038232977     1     3     3     5
 -0.0000000003     1     3     3    10
 0.0000000003     1     3     3    13
 0.0013917898     1     3     3    14
 0.0054106177     1     3     3    17
 -0.0000000001     1     3     3    18
 0.0000386227     1     3     3    19
 0.0000000381     1     3     4     1
 -0.3242694663     1     3     4     2
 -0.0007781097     1     3     4     4
 -0.0000000003     1     3     4     5
 -0.0045450643     1     3     4    10
 0.0043329097     1     3     4    13
 0.0000000001     1     3     4    14
 0.0000000003     1     3     4    17
 -0.0013302775     1     3     4    18
 -0.0105523728     1     3     5     1
 -0.0000000003     1     3     5     4
 -0.0186445043     1     3     5     5
 -0.0000000012     1     3     5    10
 0.0000000012     1     3     5    13
 0.0090603269     1     3     5    14
 0.0223872952     1     3     5    17
 -0.0000000006     1     3     5    18
 0.0015437929     1     3     5    19
 -0.0175419384     1     3     6     6
 0.0000000001     1     3     6     8
 0.0000000011     1     3     6     9
 -0.0224460958     1     3     6    11
 -0.0022314628     1     3     6    12
 -0.0000000012     1     3     6    15
 -0.0175419384     1     3     7     7
 0.0000000011     1     3     7     8
 -0.0000000001     1     3     7     9
 0.0022314628     1     3     7    11
 -0.0224460958     1     3     7    12
 -0.0000000012     1     3     7    16
 0.0000000001     1     3     8     6
 0.0000000010     1     3     8     7
 -0.0182214892     1     3     8     8
 0.0000000013     1     3     8    12
 0.0022994749     1     3     8    15
 0.0213892308     1     3     8    16
 0.0000000010     1     3     9     6
 -0.0000000001     1     3     9     7
 -0.0182214892     1     3     9     9
 0.0000000013     1     3     9    11
 0.0213892308     1     3     9    15
 -0.0022994749     1     3     9    16
 -0.0000000087     1     3    10     1
 0.0735558801     1     3    10     2
 -0.0039953992     1     3    10     4
 -0.0000000010     1     3    10     5
 -0.0190396205     1     3    10    10
 0.0188705811     1     3    10    13
 0.0000000005     1     3    10    14
 0.0000000013     1     3    10    17
 -0.0082883696     1     3    10    18
 0.0000000002     1     3    10    19
 -0.0148234921     1     3    11     6
 0.0014736671     1     3    11     7
 0.0000000009     1     3    11     9
 -0.0195235878     1     3    11    11
 -0.0000000011     1     3    11    15
 0.0000000001     1     3    11    16
 -0.0014736671     1     3    12     6
 -0.0148234921     1     3    12     7
 0.0000000009     1     3    12     8
 -0.0195235878     1     3    12    12
 -0.0000000001     1     3    12    15
 -0.0000000011     1     3    12    16
 -0.0000000080     1     3    13     1
 0.0676350946     1     3    13     2
 0.0027243029     1     3    13     4
 0.0000000008     1     3    13     5
 0.0133571285     1     3    13    10
 -0.0141840813     1     3    13    13
 -0.0000000004     1     3    13    14
 -0.0000000009     1     3    13    17
 0.0057347154     1     3    13    18
 -0.1443643297     1     3    14     1
 0.0051026135     1     3    14     5
 0.0000000004     1     3    14    10
 -0.0000000004     1     3    14    13
 -0.0032833934     1     3    14    14
 -0.0061921131     1     3    14    17
 0.0000000001     1     3    14    18
 -0.0003498129     1     3    14    19
 -0.0000000009     1     3    15     6
 0.0016035864     1     3    15     8
 0.0149162222     1     3    15     9
 -0.0000000011     1     3    15    11
 -0.0000000001     1     3    15    12
 -0.0183659503     1     3    15    15
 -0.0000000009     1     3    16     7
 0.0149162222     1     3    16     8
 -0.0016035864     1     3    16     9
 0.0000000001     1     3    16    11
 -0.0000000011     1     3    16    12
 -0.0183659503     1     3    16    16
 0.0776438419     1     3    17     1
 0.0000000002     1     3    17     4
 0.0142351936     1     3    17     5
 0.0000000009     1     3    17    10
 -0.0000000009     1     3    17    13
 -0.0073889790     1     3    17    14
 -0.0174154430     1     3    17    17
 0.0000000004     1     3    17    18
 -0.0011115895     1     3    17    19
 -0.0000000135     1     3    18     1
 0.1150373170     1     3    18     2
 -0.0011133734     1     3    18     4
 -0.0000000003     1     3    18     5
 -0.0057051274     1     3    18    10
 0.0058862377     1     3    18    13
 0.0000000001     1     3    18    14
 0.0000000004     1     3    18    17
 -0.0031741720     1     3    18    18
 -0.0142704569     1     3    19     1
 0.0004768124     1     3    19     5
 0.0000000001     1     3    19    10
 0.0000094190     1     3    19    14
 -0.0000445517     1     3    19    17
 -0.0025206837     1     3    19    19
 0.0006052539     1     4     2     1
 0.0000000001     1     4     2     2
 0.0000025880     1     4     2     3
 0.0000233546     1     4     2     5
 -0.0000085844     1     4     2    14
 -0.0000233713     1     4     2    17
 0.0000018841     1     4     2    19
 0.0000000381     1     4     3     1
 -0.3242666217     1     4     3     2
 -0.0006116856     1     4     3    10
 0.0016375280     1     4     3    13
 0.0000000001     1     4     3    14
 0.0000000001     1     4     3    17
 -0.0002276610     1     4     3    18
 -0.5876264768     1     4     4     1
 0.0007781097     1     4     4     3
 0.0010225456     1     4     4     5
 0.0000000001     1     4     4    10
 -0.0000000001     1     4     4    13
 -0.0012338845     1     4     4    14
 -0.0021741885     1     4     4    17
 0.0000000001     1     4     4    18
 0.0000140837     1     4     4    19
 -0.0000000131     1     4     5     1
 0.1114892023     1     4     5     2
 0.0000000003     1     4     5     3
 0.0000000011     1     4     5     5
 0.0197478113     1     4     5    10
 -0.0180938248     1     4     5    13
 -0.0000000005     1     4     5    14
 -0.0000000013     1     4     5    17
 0.0106056387     1     4     5    18
 0.0000000010     1     4     6     6
 -0.0022301225     1     4     6     8
 -0.0179878022     1     4     6     9
 0.0000000013     1     4     6    11
 0.0000000001     1     4     6    12
 0.0218327268     1     4     6    15
 0.0003549308     1     4     6    16
 0.0000000010     1     4     7     7
 -0.0179878022     1     4     7     8
 0.0022301225     1     4     7     9
 -0.0000000001     1     4     7    11
 0.0000000013     1     4     7    12
 -0.0003549308     1     4     7    15
 0.0218327268     1     4     7    16
 -0.0022393024     1     4     8     6
 -0.0180618465     1     4     8     7
 0.0000000012     1     4     8     8
 -0.0005779201     1     4     8    11
 -0.0238157284     1     4     8    12
 -0.0000000001     1     4     8    15
 -0.0000000014     1     4     8    16
 -0.0180618465     1     4     9     6
 0.0022393024     1     4     9     7
 0.0000000012     1     4     9     9
 -0.0238157284     1     4     9    11
 0.0005779201     1     4     9    12
 -0.0000000014     1     4     9    15
 0.0000000001     1     4     9    16
 0.0418668249     1     4    10     1
 0.0039953992     1     4    10     3
 0.0186902170     1     4    10     5
 0.0000000013     1     4    10    10
 -0.0000000012     1     4    10    13
 -0.0071796961     1     4    10    14
 -0.0247137020     1     4    10    17
 0.0000000006     1     4    10    18
 -0.0001693835     1     4    10    19
 0.0000000009     1     4    11     6
 -0.0000000001     1     4    11     7
 -0.0004079806     1     4    11     8
 -0.0168126284     1     4    11     9
 0.0000000012     1     4    11    11
 0.0203352738     1     4    11    15
 -0.0016883014     1     4    11    16
 0.0000000001     1     4    12     6
 0.0000000009     1     4    12     7
 -0.0168126284     1     4    12     8
 0.0004079806     1     4    12     9
 0.0000000012     1     4    12    12
 0.0016883014     1     4    12    15
 0.0203352738     1     4    12    16
 0.1159478912     1     4    13     1
 -0.0027243029     1     4    13     3
 -0.0124604031     1     4    13     5
 -0.0000000009     1     4    13    10
 0.0000000008     1     4    13    13
 0.0044074491     1     4    13    14
 0.0165490530     1     4    13    17
 -0.0000000005     1     4    13    18
 0.0001533035     1     4    13    19
 0.0000000189     1     4    14     1
 -0.1612028722     1     4    14     2
 -0.0000000004     1     4    14     5
 -0.0061293890     1     4    14    10
 0.0054876568     1     4    14    13
 0.0000000002     1     4    14    14
 0.0000000003     1     4    14    17
 -0.0031571319     1     4    14    18
 0.0148112861     1     4    15     6
 -0.0002407845     1     4    15     7
 -0.0000000001     1     4    15     8
 -0.0000000009     1     4    15     9
 0.0192887435     1     4    15    11
 0.0016014150     1     4    15    12
 0.0000000011     1     4    15    15
 0.0002407845     1     4    16     6
 0.0148112861     1     4    16     7
 -0.0000000009     1     4    16     8
 0.0000000001     1     4    16     9
 -0.0016014150     1     4    16    11
 0.0192887435     1     4    16    12
 0.0000000011     1     4    16    16
 -0.0000000063     1     4    17     1
 0.0537756464     1     4    17     2
 -0.0000000002     1     4    17     3
 -0.0000000009     1     4    17     5
 -0.0171276823     1     4    17    10
 0.0150302067     1     4    17    13
 0.0000000002     1     4    17    14
 0.0000000013     1     4    17    17
 -0.0097703923     1     4    17    18
 0.1117156834     1     4    18     1
 0.0011133734     1     4    18     3
 0.0055390234     1     4    18     5
 0.0000000003     1     4    18    10
 -0.0000000004     1     4    18    13
 -0.0015119987     1     4    18    14
 -0.0074870794     1     4    18    17
 0.0000000003     1     4    18    18
 0.0006577112     1     4    18    19
 -0.0000000004     1     4    19     1
 0.0036038499     1     4    19     2
 -0.0017178753     1     4    19    10
 0.0019830276     1     4    19    13
 0.0000000002     1     4    19    17
 -0.0004946631     1     4    19    18
 0.0000000001     1     4    19    19
 -0.0000000002     1     5     2     1
 0.0041804745     1     5     2     2
 -0.0000233546     1     5     2     4
 -0.0001437613     1     5     2    10
 0.0001315784     1     5     2    13
 -0.0000648464     1     5     2    18
 -0.0105523728     1     5     3     1
 0.0038232977     1     5     3     3
 -0.0000000001     1     5     3    10
 0.0000000004     1     5     3    13
 0.0039989303     1     5     3    14
 0.0082684177     1     5     3    17
 -0.0000000003     1     5     3    18
 0.0011096371     1     5     3    19
 -0.0000000131     1     5     4     1
 0.1114642102     1     5     4     2
 0.0000000003     1     5     4     3
 -0.0010225456     1     5     4     4
 0.0011312240     1     5     4    10
 -0.0057258618     1     5     4    13
 -0.0000000001     1     5     4    14
 -0.0000000005     1     5     4    17
 0.0051154610     1     5     4    18
 -0.5643924531     1     5     5     1
 0.0186445043     1     5     5     3
 -0.0000000011     1     5     5     4
 0.0000000001     1     5     5    10
 0.0000000003     1     5     5    13
 0.0086365877     1     5     5    14
 -0.0046972667     1     5     5    17
 0.0000000007     1     5     5    18
 0.0084526444     1     5     5    19
 0.0045412052     1     5     6     6
 0.0024629217     1     5     6    11
 0.0002448496     1     5     6    12
 0.0000000002     1     5     6    15
 0.0045412052     1     5     7     7
 -0.0002448496     1     5     7    11
 0.0024629217     1     5     7    12
 0.0000000002     1     5     7    16
 0.0044418521     1     5     8     8
 -0.0000000002     1     5     8    12
 -0.0005213450     1     5     8    15
 -0.0048494407     1     5     8    16
 0.0044418521     1     5     9     9
 -0.0000000002     1     5     9    11
 -0.0048494407     1     5     9    15
 0.0005213450     1     5     9    16
 -0.0000000352     1     5    10     1
 0.2986560483     1     5    10     2
 0.0000000010     1     5    10     3
 -0.0186902170     1     5    10     4
 0.0103044490     1     5    10    10
 0.0006385908     1     5    10    13
 0.0000000005     1     5    10    14
 -0.0000000006     1     5    10    17
 0.0139904014     1     5    10    18
 0.0000000005     1     5    10    19
 0.0028151773     1     5    11     6
 -0.0002798688     1     5    11     7
 -0.0000000002     1     5    11     9
 0.0058248723     1     5    11    11
 0.0000000002     1     5    11    15
 0.0002798688     1     5    12     6
 0.0028151773     1     5    12     7
 -0.0000000002     1     5    12     8
 0.0058248723     1     5    12    12
 0.0000000002     1     5    12    16
 0.0000000200     1     5    13     1
 -0.1698624186     1     5    13     2
 -0.0000000008     1     5    13     3
 0.0124604031     1     5    13     4
 -0.0060299618     1     5    13    10
 -0.0048580054     1     5    13    13
 -0.0000000007     1     5    13    14
 0.0000000003     1     5    13    17
 -0.0107471691     1     5    13    18
 -0.0000000002     1     5    13    19
 0.1044945002     1     5    14     1
 -0.0051026135     1     5    14     3
 0.0000000004     1     5    14     4
 -0.0000000001     1     5    14    10
 -0.0000000003     1     5    14    13
 -0.0043774084     1     5    14    14
 0.0005909753     1     5    14    17
 -0.0000000003     1     5    14    18
 -0.0014310181     1     5    14    19
 0.0000000001     1     5    15     6
 -0.0003050986     1     5    15     8
 -0.0028379628     1     5    15     9
 0.0000000001     1     5    15    11
 0.0036881285     1     5    15    15
 0.0000000001     1     5    16     7
 -0.0028379628     1     5    16     8
 0.0003050986     1     5    16     9
 0.0000000001     1     5    16    12
 0.0036881285     1     5    16    16
 0.1693158827     1     5    17     1
 -0.0142351936     1     5    17     3
 0.0000000009     1     5    17     4
 -0.0000000004     1     5    17    10
 -0.0000000003     1     5    17    13
 -0.0127694982     1     5    17    14
 0.0128878251     1     5    17    17
 -0.0000000007     1     5    17    18
 -0.0036042016     1     5    17    19
 -0.0000000051     1     5    18     1
 0.0436430130     1     5    18     2
 0.0000000003     1     5    18     3
 -0.0055390234     1     5    18     4
 0.0028116903     1     5    18    10
 0.0035596708     1     5    18    13
 0.0000000003     1     5    18    14
 -0.0000000001     1     5    18    17
 0.0063302871     1     5    18    18
 -0.0161424448     1     5    19     1
 -0.0004768124     1     5    19     3
 -0.0000000001     1     5    19    10
 0.0000000003     1     5    19    13
 0.0021999502     1     5    19    14
 0.0079584852     1     5    19    17
 -0.0000000003     1     5    19    18
 0.0023105669     1     5    19    19
 0.0000085944     1     6     2     8
 0.0000693206     1     6     2     9
 -0.0000789599     1     6     2    15
 -0.0000012837     1     6     2    16
 0.0000000001     1     6     3     9
 -0.0078061226     1     6     3    11
 -0.0007760402     1     6     3    12
 -0.0000000005     1     6     3    15
 0.0000022731     1     6     4     8
 0.0000183337     1     6     4     9
 0.0000000003     1     6     4    11
 0.0071467803     1     6     4    15
 0.0001161840     1     6     4    16
 -0.0003456271     1     6     5    11
 -0.0000343603     1     6     5    12
 0.0000000001     1     6     5    15
 -0.5447958199     1     6     6     1
 0.0175419384     1     6     6     3
 -0.0000000010     1     6     6     4
 -0.0045412052     1     6     6     5
 0.0000000001     1     6     6    10
 0.0000000004     1     6     6    13
 0.0102053153     1     6     6    14
 -0.0015937592     1     6     6    17
 0.0000000003     1     6     6    18
 -0.0037230680     1     6     6    19
 0.0000000044     1     6     8     1
 -0.0380158268     1     6     8     2
 -0.0000000001     1     6     8     3
 0.0022393024     1     6     8     4
 -0.0007622844     1     6     8    10
 -0.0004940757     1     6     8    13
 -0.0008588766     1     6     8    18
 0.0000000361     1     6     9     1
 -0.3066294306     1     6     9     2
 -0.0000000010     1     6     9     3
 0.0180618465     1     6     9     4
 -0.0061484612     1     6     9    10
 -0.0039851330     1     6     9    13
 -0.0000000006     1     6     9    14
 0.0000000004     1     6     9    17
 -0.0069275577     1     6     9    18
 0.0000000002     1     6     9    19
 0.0000029482     1     6    10     8
 0.0000237794     1     6    10     9
 -0.0000000001     1     6    10    11
 -0.0005066145     1     6    10    15
 -0.0000082359     1     6    10    16
 -0.2025327989     1     6    11     1
 0.0148234921     1     6    11     3
 -0.0000000009     1     6    11     4
 -0.0028151773     1     6    11     5
 0.0000000002     1     6    11    10
 0.0000000004     1     6    11    13
 0.0143835323     1     6    11    14
 -0.0077212522     1     6    11    17
 0.0000000006     1     6    11    18
 -0.0017107907     1     6    11    19
 -0.0201346558     1     6    12     1
 0.0014736671     1     6    12     3
 -0.0000000001     1     6    12     4
 -0.0002798688     1     6    12     5
 0.0014299287     1     6    12    14
 -0.0007676028     1     6    12    17
 -0.0001700770     1     6    12    19
 -0.0000030772     1     6    13     8
 -0.0000248202     1     6    13     9
 0.0007822354     1     6    13    15
 0.0000127167     1     6    13    16
 0.0023196979     1     6    14    11
 0.0002306111     1     6    14    12
 0.0000000001     1     6    14    15
 -0.0000000210     1     6    15     1
 0.1785890983     1     6    15     2
 0.0000000009     1     6    15     3
 -0.0148112861     1     6    15     4
 -0.0000000001     1     6    15     5
 0.0040431069     1     6    15    10
 0.0084654031     1     6    15    13
 0.0000000008     1     6    15    14
 -0.0000000004     1     6    15    17
 0.0113625560     1     6    15    18
 -0.0000000004     1     6    16     1
 0.0029032916     1     6    16     2
 -0.0002407845     1     6    16     4
 0.0000657281     1     6    16    10
 0.0001376205     1     6    16    13
 0.0001847191     1     6    16    18
 -0.0014985746     1     6    17    11
 -0.0001489797     1     6    17    12
 -0.0000000001     1     6    17    15
 0.0000458992     1     6    18     8
 0.0003702149     1     6    18     9
 0.0000000002     1     6    18    11
 0.0036861776     1     6    18    15
 0.0000599255     1     6    18    16
 0.0034103498     1     6    19    11
 0.0003390375     1     6    19    12
 0.0000000002     1     6    19    15
 0.0000693206     1     7     2     8
 -0.0000085944     1     7     2     9
 0.0000012837     1     7     2    15
 -0.0000789599     1     7     2    16
 0.0000000001     1     7     3     8
 0.0007760402     1     7     3    11
 -0.0078061226     1     7     3    12
 -0.0000000005     1     7     3    16
 0.0000183337     1     7     4     8
 -0.0000022731     1     7     4     9
 0.0000000003     1     7     4    12
 -0.0001161840     1     7     4    15
 0.0071467803     1     7     4    16
 0.0000343603     1     7     5    11
 -0.0003456271     1     7     5    12
 0.0000000001     1     7     5    16
 -0.5447958199     1     7     7     1
 0.0175419384     1     7     7     3
 -0.0000000010     1     7     7     4
 -0.0045412052     1     7     7     5
 0.0000000001     1     7     7    10
 0.0000000004     1     7     7    13
 0.0102053153     1     7     7    14
 -0.0015937592     1     7     7    17
 0.0000000003     1     7     7    18
 -0.0037230680     1     7     7    19
 0.0000000361     1     7     8     1
 -0.3066294306     1     7     8     2
 -0.0000000010     1     7     8     3
 0.0180618465     1     7     8     4
 -0.0061484612     1     7     8    10
 -0.0039851330     1     7     8    13
 -0.0000000006     1     7     8    14
 0.0000000004     1     7     8    17
 -0.0069275577     1     7     8    18
 0.0000000002     1     7     8    19
 -0.0000000044     1     7     9     1
 0.0380158268     1     7     9     2
 0.0000000001     1     7     9     3
 -0.0022393024     1     7     9     4