&FCI NORB= 13,NELEC= 14,MS2=0,
 ORBSYM=1,1,1,1,1,1,1,1,1,1,1,1,1
 ISYM=1,
&END
 0.2844719527     1     1     2     2
 0.0000000005     1     1     2     3
 -0.0010341647     1     1     2     4
 0.0000000031     1     1     2     5
 -0.0052814129     1     1     2    10
 0.0052442888     1     1     2    11
 0.0000000005     1     1     3     2
 0.5997021733     1     1     3     3
 -0.0000003441     1     1     3     4
 0.0253828749     1     1     3     5
 0.0000001074     1     1     3    10
 0.0000000454     1     1     3    11
 -0.0010341647     1     1     4     2
 -0.0000003441     1     1     4     3
 0.5984567378     1     1     4     4
 0.0000001585     1     1     4     5
 -0.0465817344     1     1     4    10
 -0.1077415099     1     1     4    11
 0.0000000031     1     1     5     2
 0.0253828749     1     1     5     3
 0.0000001585     1     1     5     4
 0.5985351957     1     1     5     5
 0.0000003086     1     1     5    10
 -0.0000001992     1     1     5    11
 0.5577386112     1     1     6     6
 -0.0000002652     1     1     6     8
 -0.0000001725     1     1     6     9
 0.1629457842     1     1     6    12
 -0.0991124322     1     1     6    13
 0.5577386112     1     1     7     7
 0.0000001725     1     1     7     8
 -0.0000002652     1     1     7     9
 0.0991124322     1     1     7    12
 0.1629457842     1     1     7    13
 -0.0000002652     1     1     8     6
 0.0000001725     1     1     8     7
 0.5772388772     1     1     8     8
 -0.0000001074     1     1     8    12
 0.0000002235     1     1     8    13
 -0.0000001725     1     1     9     6
 -0.0000002652     1     1     9     7
 0.5772388772     1     1     9     9
 -0.0000002235     1     1     9    12
 -0.0000001074     1     1     9    13
 -0.0052814129     1     1    10     2
 0.0000001074     1     1    10     3
 -0.0465817344     1     1    10     4
 0.0000003086     1     1    10     5
 0.6223033840     1     1    10    10
 -0.1828556323     1     1    10    11
 0.0052442888     1     1    11     2
 0.0000000454     1     1    11     3
 -0.1077415099     1     1    11     4
 -0.0000001992     1     1    11     5
 -0.1828556323     1     1    11    10
 0.5028040160     1     1    11    11
 0.1629457842     1     1    12     6
 0.0991124322     1     1    12     7
 -0.0000001074     1     1    12     8
 -0.0000002235     1     1    12     9
 0.5674710163     1     1    12    12
 -0.0991124322     1     1    13     6
 0.1629457842     1     1    13     7
 0.0000002235     1     1    13     8
 -0.0000001074     1     1    13     9
 0.5674710163     1     1    13    13
 -0.2844719527     1     2     2     1
 -0.0009361781     1     2     2     3
 -0.0000000006     1     2     2     4
 -0.0054614155     1     2     2     5
 -0.0000000030     1     2     2    10
 0.0000000030     1     2     2    11
 -0.0000000005     1     2     3     1
 -0.0000000004     1     2     3     3
 0.3002921968     1     2     3     4
 -0.0937241671     1     2     3    10
 -0.0394836671     1     2     3    11
 0.0010341647     1     2     4     1
 0.3003096151     1     2     4     3
 0.0000000003     1     2     4     4
 -0.1383251035     1     2     4     5
 -0.0000000001     1     2     4    10
 0.0000000001     1     2     4    11
 -0.0000000031     1     2     5     1
 -0.1383643153     1     2     5     4
 -0.0000000001     1     2     5     5
 -0.2694092954     1     2     5    10
 0.1737404633     1     2     5    11
 -0.0000000002     1     2     6     6
 0.2315229659     1     2     6     8
 0.1505083249     1     2     6     9
 -0.0000000002     1     2     6    12
 0.0000000001     1     2     6    13
 -0.0000000002     1     2     7     7
 -0.1505083249     1     2     7     8
 0.2315229659     1     2     7     9
 -0.0000000001     1     2     7    12
 -0.0000000002     1     2     7    13
 0.2314549819     1     2     8     6
 -0.1504641299     1     2     8     7
 0.0000000001     1     2     8     8
 0.0936399753     1     2     8    12
 -0.1948940485     1     2     8    13
 0.1504641299     1     2     9     6
 0.2314549819     1     2     9     7
 0.0000000001     1     2     9     9
 0.1948940485     1     2     9    12
 0.0936399753     1     2     9    13
 0.0052814129     1     2    10     1
 -0.0936841926     1     2    10     3
 -0.0000000001     1     2    10     4
 -0.2692083608     1     2    10     5
 0.0000000002     1     2    10    10
 -0.0052442888     1     2    11     1
 -0.0395099724     1     2    11     3
 0.0000000001     1     2    11     4
 0.1735387484     1     2    11     5
 -0.0000000006     1     2    11    11
 -0.0000000002     1     2    12     6
 -0.0000000001     1     2    12     7
 0.0936831494     1     2    12     8
 0.1949839073     1     2    12     9
 -0.0000000005     1     2    12    12
 0.0000000001     1     2    13     6
 -0.0000000002     1     2    13     7
 -0.1949839073     1     2    13     8
 0.0936831494     1     2    13     9
 -0.0000000005     1     2    13    13
 -0.0000000005     1     3     2     1
 0.0009361781     1     3     2     2
 -0.0000140087     1     3     2     4
 -0.0000389093     1     3     2    10
 0.0000283870     1     3     2    11
 -0.5997021733     1     3     3     1
 0.0000000004     1     3     3     2
 -0.0000000006     1     3     3     4
 -0.0059440213     1     3     3     5
 -0.0000000037     1     3     3    10
 0.0000000039     1     3     3    11
 0.0000003441     1     3     4     1
 -0.3003096151     1     3     4     2
 -0.0014981744     1     3     4     4
 -0.0000000035     1     3     4     5
 -0.0057685362     1     3     4    10
 0.0053114320     1     3     4    11
 -0.0253828749     1     3     5     1
 -0.0000000037     1     3     5     4
 -0.0206222644     1     3     5     5
 -0.0000000118     1     3     5    10
 0.0000000123     1     3     5    11
 -0.0168495021     1     3     6     6
 0.0000000088     1     3     6     8
 0.0000000057     1     3     6     9
 -0.0188708911     1     3     6    12
 0.0114782958     1     3     6    13
 -0.0168495021     1     3     7     7
 -0.0000000057     1     3     7     8
 0.0000000088     1     3     7     9
 -0.0114782958     1     3     7    12
 -0.0188708911     1     3     7    13
 0.0000000076     1     3     8     6
 -0.0000000050     1     3     8     7
 -0.0176522778     1     3     8     8
 0.0000000054     1     3     8    12
 -0.0000000113     1     3     8    13
 0.0000000050     1     3     9     6
 0.0000000076     1     3     9     7
 -0.0176522778     1     3     9     9
 0.0000000113     1     3     9    12
 0.0000000054     1     3     9    13
 -0.0000001074     1     3    10     1
 0.0936841926     1     3    10     2
 -0.0053900454     1     3    10     4
 -0.0000000097     1     3    10     5
 -0.0173719657     1     3    10    10
 0.0185532534     1     3    10    11
 -0.0000000454     1     3    11     1
 0.0395099724     1     3    11     2
 0.0041142707     1     3    11     4
 0.0000000074     1     3    11     5
 0.0131657200     1     3    11    10
 -0.0154003433     1     3    11    11
 -0.0114439081     1     3    12     6
 -0.0069608034     1     3    12     7
 0.0000000038     1     3    12     8
 0.0000000081     1     3    12     9
 -0.0191514181     1     3    12    12
 0.0069608034     1     3    13     6
 -0.0114439081     1     3    13     7
 -0.0000000081     1     3    13     8
 0.0000000038     1     3    13     9
 -0.0191514181     1     3    13    13
 0.0010341647     1     4     2     1
 0.0000000006     1     4     2     2
 0.0000140087     1     4     2     3
 0.0000402679     1     4     2     5
 0.0000003441     1     4     3     1
 -0.3002921968     1     4     3     2
 0.0000000006     1     4     3     3
 0.0000000002     1     4     3     5
 -0.0003122946     1     4     3    10
 0.0011014449     1     4     3    11
 -0.5984567378     1     4     4     1
 -0.0000000003     1     4     4     2
 0.0014981744     1     4     4     3
 0.0016599757     1     4     4     5
 0.0000000012     1     4     4    10
 -0.0000000017     1     4     4    11
 -0.0000001585     1     4     5     1
 0.1383643153     1     4     5     2
 0.0000000037     1     4     5     3
 0.0000000112     1     4     5     5
 0.0199693426     1     4     5    10
 -0.0190545069     1     4     5    11
 0.0000000101     1     4     6     6
 -0.0142500132     1     4     6     8
 -0.0092636409     1     4     6     9
 0.0000000105     1     4     6    12
 -0.0000000064     1     4     6    13
 0.0000000101     1     4     7     7
 0.0092636409     1     4     7     8
 -0.0142500132     1     4     7     9
 0.0000000064     1     4     7    12
 0.0000000105     1     4     7    13
 -0.0139728754     1     4     8     6
 0.0090834793     1     4     8     7
 0.0000000114     1     4     8     8
 -0.0102430246     1     4     8    12
 0.0213189349     1     4     8    13
 -0.0090834793     1     4     9     6
 -0.0139728754     1     4     9     7
 0.0000000114     1     4     9     9
 -0.0213189349     1     4     9    12
 -0.0102430246     1     4     9    13
 0.0465817344     1     4    10     1
 0.0000000001     1     4    10     2
 0.0053900454     1     4    10     3
 0.0174718362     1     4    10     5
 0.0000000128     1     4    10    10
 -0.0000000114     1     4    10    11
 0.1077415099     1     4    11     1
 -0.0000000001     1     4    11     2
 -0.0041142707     1     4    11     3
 -0.0123817295     1     4    11     5
 -0.0000000089     1     4    11    10
 0.0000000080     1     4    11    11
 0.0000000072     1     4    12     6
 0.0000000044     1     4    12     7
 -0.0072431157     1     4    12     8
 -0.0150751870     1     4    12     9
 0.0000000124     1     4    12    12
 -0.0000000044     1     4    13     6
 0.0000000072     1     4    13     7
 0.0150751870     1     4    13     8
 -0.0072431157     1     4    13     9
 0.0000000124     1     4    13    13
 -0.0000000031     1     5     2     1
 0.0054614155     1     5     2     2
 -0.0000402679     1     5     2     4
 -0.0002036781     1     5     2    10
 0.0001967762     1     5     2    11
 -0.0253828749     1     5     3     1
 0.0059440213     1     5     3     3
 -0.0000000002     1     5     3     4
 -0.0000000019     1     5     3    10
 0.0000000046     1     5     3    11
 -0.0000001585     1     5     4     1
 0.1383251035     1     5     4     2
 0.0000000035     1     5     4     3
 -0.0016599757     1     5     4     4
 0.0020363657     1     5     4    10
 -0.0061724455     1     5     4    11
 -0.5985351957     1     5     5     1
 0.0000000001     1     5     5     2
 0.0206222644     1     5     5     3
 -0.0000000112     1     5     5     4
 0.0000000012     1     5     5    10
 0.0000000023     1     5     5    11
 0.0057053483     1     5     6     6
 -0.0000000001     1     5     6     8
 -0.0000000001     1     5     6     9
 0.0026970275     1     5     6    12
 -0.0016404779     1     5     6    13
 0.0057053483     1     5     7     7
 0.0000000001     1     5     7     8
 -0.0000000001     1     5     7     9
 0.0016404779     1     5     7    12
 0.0026970275     1     5     7    13
 -0.0000000005     1     5     8     6
 0.0000000003     1     5     8     7
 0.0053226511     1     5     8     8
 -0.0000000009     1     5     8    12
 0.0000000019     1     5     8    13
 -0.0000000003     1     5     9     6
 -0.0000000005     1     5     9     7
 0.0053226511     1     5     9     9
 -0.0000000019     1     5     9    12
 -0.0000000009     1     5     9    13
 -0.0000003086     1     5    10     1
 0.2692083608     1     5    10     2
 0.0000000097     1     5    10     3
 -0.0174718362     1     5    10     4
 0.0129347928     1     5    10    10
 -0.0015840117     1     5    10    11
 0.0000001992     1     5    11     1
 -0.1735387484     1     5    11     2
 -0.0000000074     1     5    11     3
 0.0123817295     1     5    11     4
 -0.0082129117     1     5    11    10
 -0.0035684953     1     5    11    11
 0.0027039965     1     5    12     6
 0.0016447167     1     5    12     7
 -0.0000000007     1     5    12     8
 -0.0000000013     1     5    12     9
 0.0066053582     1     5    12    12
 -0.0016447167     1     5    13     6
 0.0027039965     1     5    13     7
 0.0000000013     1     5    13     8
 -0.0000000007     1     5    13     9
 0.0066053582     1     5    13    13
 0.0000741253     1     6     2     8
 0.0000481873     1     6     2     9
 0.0000000010     1     6     3     8
 0.0000000006     1     6     3     9
 -0.0070048422     1     6     3    12
 0.0042607235     1     6     3    13
 -0.0000000925     1     6     4     8
 -0.0000000601     1     6     4     9
 0.0000000031     1     6     4    12
 -0.0000000019     1     6     4    13
 0.0000000003     1     6     5     8
 0.0000000003     1     6     5     9
 -0.0000753480     1     6     5    12
 0.0000458307     1     6     5    13
 -0.5577386112     1     6     6     1
 0.0000000002     1     6     6     2
 0.0168495021     1     6     6     3
 -0.0000000101     1     6     6     4
 -0.0057053483     1     6     6     5
 0.0000000011     1     6     6    10
 0.0000000044     1     6     6    11
 0.0000002652     1     6     8     1
 -0.2314549819     1     6     8     2
 -0.0000000076     1     6     8     3
 0.0139728754     1     6     8     4
 0.0000000005     1     6     8     5
 -0.0064168482     1     6     8    10
 -0.0020886291     1     6     8    11
 0.0000001725     1     6     9     1
 -0.1504641299     1     6     9     2
 -0.0000000050     1     6     9     3
 0.0090834793     1     6     9     4
 0.0000000003     1     6     9     5
 -0.0041714612     1     6     9    10
 -0.0013577749     1     6     9    11
 -0.0000054599     1     6    10     8
 -0.0000035494     1     6    10     9
 -0.0000000010     1     6    10    12
 0.0000000006     1     6    10    13
 -0.0000837874     1     6    11     8
 -0.0000544685     1     6    11     9
 0.0000000003     1     6    11    12
 -0.0000000002     1     6    11    13
 -0.1629457842     1     6    12     1
 0.0000000002     1     6    12     2
 0.0114439081     1     6    12     3
 -0.0000000072     1     6    12     4
 -0.0027039965     1     6    12     5
 0.0000000025     1     6    12    10
 0.0000000032     1     6    12    11
 0.0991124322     1     6    13     1
 -0.0000000001     1     6    13     2
 -0.0069608034     1     6    13     3
 0.0000000044     1     6    13     4
 0.0016447167     1     6    13     5
 -0.0000000015     1     6    13    10
 -0.0000000019     1     6    13    11
 -0.0000481873     1     7     2     8
 0.0000741253     1     7     2     9
 -0.0000000006     1     7     3     8
 0.0000000010     1     7     3     9
 -0.0042607235     1     7     3    12
 -0.0070048422     1     7     3    13
 0.0000000601     1     7     4     8
 -0.0000000925     1     7     4     9
 0.0000000019     1     7     4    12
 0.0000000031     1     7     4    13
 -0.0000000003     1     7     5     8
 0.0000000003     1     7     5     9
 -0.0000458307     1     7     5    12
 -0.0000753480     1     7     5    13
 -0.5577386112     1     7     7     1
 0.0000000002     1     7     7     2
 0.0168495021     1     7     7     3
 -0.0000000101     1     7     7     4
 -0.0057053483     1     7     7     5
 0.0000000011     1     7     7    10
 0.0000000044     1     7     7    11
 -0.0000001725     1     7     8     1
 0.1504641299     1     7     8     2
 0.0000000050     1     7     8     3
 -0.0090834793     1     7     8     4
 -0.0000000003     1     7     8     5
 0.0041714612     1     7     8    10
 0.0013577749     1     7     8    11
 0.0000002652     1     7     9     1
 -0.2314549819     1     7     9     2
 -0.0000000076     1     7     9     3
 0.0139728754     1     7     9     4
 0.0000000005     1     7     9     5
 -0.0064168482     1     7     9    10
 -0.0020886291     1     7     9    11
 0.0000035494     1     7    10     8
 -0.0000054599     1     7    10     9
 -0.0000000006     1     7    10    12
 -0.0000000010     1     7    10    13
 0.0000544685     1     7    11     8
 -0.0000837874     1     7    11     9
 0.0000000002     1     7    11    12
 0.0000000003     1     7    11    13
 -0.0991124322     1     7    12     1
 0.0000000001     1     7    12     2
 0.0069608034     1     7    12     3
 -0.0000000044     1     7    12     4
 -0.0016447167     1     7    12     5
 0.0000000015     1     7    12    10
 0.0000000019     1     7    12    11
 -0.1629457842     1     7    13     1
 0.0000000002     1     7    13     2
 0.0114439081     1     7    13     3
 -0.0000000072     1     7    13     4
 -0.0027039965     1     7    13     5
 0.0000000025     1     7    13    10
 0.0000000032     1     7    13    11
 -0.0000741253     1     8     2     6
 0.0000481873     1     8     2     7
 -0.0000434192     1     8     2    12
 0.0000903691     1     8     2    13
 -0.0000000010     1     8     3     6
 0.0000000006     1     8     3     7
 0.0000000016     1     8     3    12
 -0.0000000032     1     8     3    13
 0.0000000925     1     8     4     6
 -0.0000000601     1     8     4     7
 -0.0028400522     1     8     4    12
 0.0059110362     1     8     4    13
 -0.0000000003     1     8     5     6
 0.0000000003     1     8     5     7
 -0.0000000003     1     8     5    12
 0.0000000005     1     8     5    13
 0.0000002652     1     8     6     1
 -0.2315229659     1     8     6     2
 -0.0000000088     1     8     6     3
 0.0142500132     1     8     6     4
 0.0000000001     1     8     6     5
 -0.0066361756     1     8     6    10
 -0.0019912013     1     8     6    11
 -0.0000001725     1     8     7     1
 0.1505083249     1     8     7     2
 0.0000000057     1     8     7     3
 -0.0092636409     1     8     7     4
 -0.0000000001     1     8     7     5
 0.0043140415     1     8     7    10
 0.0012944390     1     8     7    11
 -0.5772388772     1     8     8     1
 -0.0000000001     1     8     8     2
 0.0176522778     1     8     8     3
 -0.0000000114     1     8     8     4
 -0.0053226511     1     8     8     5
 0.0000000026     1     8     8    10
 0.0000000038     1     8     8    11
 0.0000054599     1     8    10     6
 -0.0000035494     1     8    10     7
 0.0008736505     1     8    10    12
 -0.0018183397     1     8    10    13
 0.0000837874     1     8    11     6
 -0.0000544685     1     8    11     7
 -0.0002542588     1     8    11    12
 0.0005291920     1     8    11    13
 0.0000001074     1     8    12     1
 -0.0936831494     1     8    12     2
 -0.0000000038     1     8    12     3
 0.0072431157     1     8    12     4
 0.0000000007     1     8    12     5
 -0.0027491409     1     8    12    10
 -0.0027005819     1     8    12    11
 -0.0000002235     1     8    13     1
 0.1949839073     1     8    13     2
 0.0000000081     1     8    13     3
 -0.0150751870     1     8    13     4
 -0.0000000013     1     8    13     5
 0.0057218212     1     8    13    10
 0.0056207548     1     8    13    11
 -0.0000481873     1     9     2     6
 -0.0000741253     1     9     2     7
 -0.0000903691     1     9     2    12
 -0.0000434192     1     9     2    13
 -0.0000000006     1     9     3     6
 -0.0000000010     1     9     3     7
 0.0000000032     1     9     3    12
 0.0000000016     1     9     3    13
 0.0000000601     1     9     4     6
 0.0000000925     1     9     4     7
 -0.0059110362     1     9     4    12
 -0.0028400522     1     9     4    13
 -0.0000000003     1     9     5     6
 -0.0000000003     1     9     5     7
 -0.0000000005     1     9     5    12
 -0.0000000003     1     9     5    13
 0.0000001725     1     9     6     1
 -0.1505083249     1     9     6     2
 -0.0000000057     1     9     6     3
 0.0092636409     1     9     6     4
 0.0000000001     1     9     6     5
 -0.0043140415     1     9     6    10
 -0.0012944390     1     9     6    11
 0.0000002652     1     9     7     1
 -0.2315229659     1     9     7     2
 -0.0000000088     1     9     7     3
 0.0142500132     1     9     7     4
 0.0000000001     1     9     7     5
 -0.0066361756     1     9     7    10
 -0.0019912013     1     9     7    11
 -0.5772388772     1     9     9     1
 -0.0000000001     1     9     9     2
 0.0176522778     1     9     9     3
 -0.0000000114     1     9     9     4
 -0.0053226511     1     9     9     5
 0.0000000026     1     9     9    10
 0.0000000038     1     9     9    11
 0.0000035494     1     9    10     6
 0.0000054599     1     9    10     7
 0.0018183397     1     9    10    12
 0.0008736505     1     9    10    13
 0.0000544685     1     9    11     6
 0.0000837874     1     9    11     7
 -0.0005291920     1     9    11    12
 -0.0002542588     1     9    11    13
 0.0000002235     1     9    12     1
 -0.1949839073     1     9    12     2
 -0.0000000081     1     9    12     3
 0.0150751870     1     9    12     4
 0.0000000013     1     9    12     5
 -0.0057218212     1     9    12    10
 -0.0056207548     1     9    12    11
 0.0000001074     1     9    13     1
 -0.0936831494     1     9    13     2
 -0.0000000038     1     9    13     3
 0.0072431157     1     9    13     4
 0.0000000007     1     9    13     5
 -0.0027491409     1     9    13    10
 -0.0027005819     1     9    13    11
 0.0052814129     1    10     2     1
 0.0000000030     1    10     2     2
 0.0000389093     1    10     2     3
 0.0002036781     1    10     2     5
 -0.0000001074     1    10     3     1
 0.0937241671     1    10     3     2
 0.0000000037     1    10     3     3
 0.0003122946     1    10     3     4
 0.0000000019     1    10     3     5
 0.0052636608     1    10     3    11
 0.0465817344     1    10     4     1
 0.0000000001     1    10     4     2
 0.0057685362     1    10     4     3
 -0.0000000012     1    10     4     4
 -0.0020363657     1    10     4     5
 -0.0000000023     1    10     4    11
 -0.0000003086     1    10     5     1
 0.2694092954     1    10     5     2
 0.0000000118     1    10     5     3
 -0.0199693426     1    10     5     4
 -0.0000000012     1    10     5     5
 0.0068006131     1    10     5    11
 -0.0000000011     1    10     6     6
 0.0066361756     1    10     6     8
 0.0043140415     1    10     6     9
 -0.0000000035     1    10     6    12
 0.0000000022     1    10     6    13
 -0.0000000011     1    10     7     7
 -0.0043140415     1    10     7     8
 0.0066361756     1    10     7     9
 -0.0000000022     1    10     7    12
 -0.0000000035     1    10     7    13
 0.0064168482     1    10     8     6
 -0.0041714612     1    10     8     7
 -0.0000000026     1    10     8     8
 0.0036641465     1    10     8    12
 -0.0076262338     1    10     8    13
 0.0041714612     1    10     9     6
 0.0064168482     1    10     9     7
 -0.0000000026     1    10     9     9
 0.0076262338     1    10     9    12
 0.0036641465     1    10     9    13
 -0.6223033840     1    10    10     1
 -0.0000000002     1    10    10     2
 0.0173719657     1    10    10     3
 -0.0000000128     1    10    10     4
 -0.0129347928     1    10    10     5
 0.0000000069     1    10    10    11
 0.1828556323     1    10    11     1
 -0.0131657200     1    10    11     3
 0.0000000089     1    10    11     4
 0.0082129117     1    10    11     5
 -0.0000000073     1    10    11    11
 -0.0000000025     1    10    12     6
 -0.0000000015     1    10    12     7
 0.0027491409     1    10    12     8
 0.0057218212     1    10    12     9
 -0.0000000028     1    10    12    12
 0.0000000015     1    10    13     6
 -0.0000000025     1    10    13     7
 -0.0057218212     1    10    13     8
 0.0027491409     1    10    13     9
 -0.0000000028     1    10    13    13
 -0.0052442888     1    11     2     1
 -0.0000000030     1    11     2     2
 -0.0000283870     1    11     2     3
 -0.0001967762     1    11     2     5
 -0.0000000454     1    11     3     1
 0.0394836671     1    11     3     2
 -0.0000000039     1    11     3     3
 -0.0011014449     1    11     3     4
 -0.0000000046     1    11     3     5
 -0.0052636608     1    11     3    10
 0.1077415099     1    11     4     1
 -0.0000000001     1    11     4     2
 -0.0053114320     1    11     4     3
 0.0000000017     1    11     4     4
 0.0061724455     1    11     4     5
 0.0000000023     1    11     4    10
 0.0000001992     1    11     5     1
 -0.1737404633     1    11     5     2
 -0.0000000123     1    11     5     3
 0.0190545069     1    11     5     4
 -0.0000000023     1    11     5     5
 -0.0068006131     1    11     5    10
 -0.0000000044     1    11     6     6
 0.0019912013     1    11     6     8
 0.0012944390     1    11     6     9
 -0.0000000028     1    11     6    12
 0.0000000017     1    11     6    13
 -0.0000000044     1    11     7     7
 -0.0012944390     1    11     7     8
 0.0019912013     1    11     7     9
 -0.0000000017     1    11     7    12
 -0.0000000028     1    11     7    13
 0.0020886291     1    11     8     6
 -0.0013577749     1    11     8     7
 -0.0000000038     1    11     8     8
 0.0024773636     1    11     8    12
 -0.0051561679     1    11     8    13
 0.0013577749     1    11     9     6
 0.0020886291     1    11     9     7
 -0.0000000038     1    11     9     9
 0.0051561679     1    11     9    12
 0.0024773636     1    11     9    13
 0.1828556323     1    11    10     1
 -0.0185532534     1    11    10     3
 0.0000000114     1    11    10     4
 0.0015840117     1    11    10     5
 -0.0000000069     1    11    10    10
 -0.5028040160     1    11    11     1
 0.0000000006     1    11    11     2
 0.0154003433     1    11    11     3
 -0.0000000080     1    11    11     4
 0.0035684953     1    11    11     5
 0.0000000073     1    11    11    10
 -0.0000000032     1    11    12     6
 -0.0000000019     1    11    12     7
 0.0027005819     1    11    12     8
 0.0056207548     1    11    12     9
 -0.0000000063     1    11    12    12
 0.0000000019     1    11    13     6
 -0.0000000032     1    11    13     7
 -0.0056207548     1    11    13     8
 0.0027005819     1    11    13     9
 -0.0000000063     1    11    13    13
 0.0000434192     1    12     2     8
 0.0000903691     1    12     2     9
 0.0070048422     1    12     3     6
 0.0042607235     1    12     3     7
 -0.0000000016     1    12     3     8
 -0.0000000032     1    12     3     9
 -0.0000000031     1    12     4     6
 -0.0000000019     1    12     4     7
 0.0028400522     1    12     4     8
 0.0059110362     1    12     4     9
 0.0000753480     1    12     5     6
 0.0000458307     1    12     5     7
 0.0000000003     1    12     5     8
 0.0000000005     1    12     5     9
 -0.1629457842     1    12     6     1
 0.0000000002     1    12     6     2
 0.0188708911     1    12     6     3
 -0.0000000105     1    12     6     4
 -0.0026970275     1    12     6     5
 0.0000000035     1    12     6    10
 0.0000000028     1    12     6    11
 -0.0991124322     1    12     7     1
 0.0000000001     1    12     7     2
 0.0114782958     1    12     7     3
 -0.0000000064     1    12     7     4
 -0.0016404779     1    12     7     5
 0.0000000022     1    12     7    10
 0.0000000017     1    12     7    11
 0.0000001074     1    12     8     1
 -0.0936399753     1    12     8     2
 -0.0000000054     1    12     8     3
 0.0102430246     1    12     8     4
 0.0000000009     1    12     8     5
 -0.0036641465     1    12     8    10
 -0.0024773636     1    12     8    11
 0.0000002235     1    12     9     1
 -0.1948940485     1    12     9     2
 -0.0000000113     1    12     9     3
 0.0213189349     1    12     9     4
 0.0000000019     1    12     9     5
 -0.0076262338     1    12     9    10
 -0.0051561679     1    12     9    11
 0.0000000010     1    12    10     6
 0.0000000006     1    12    10     7
 -0.0008736505     1    12    10     8
 -0.0018183397     1    12    10     9
 -0.0000000003     1    12    11     6
 -0.0000000002     1    12    11     7
 0.0002542588     1    12    11     8
 0.0005291920     1    12    11     9
 -0.5674710163     1    12    12     1
 0.0000000005     1    12    12     2
 0.0191514181     1    12    12     3
 -0.0000000124     1    12    12     4
 -0.0066053582     1    12    12     5
 0.0000000028     1    12    12    10
 0.0000000063     1    12    12    11
 -0.0000903691     1    13     2     8
 0.0000434192     1    13     2     9
 -0.0042607235     1    13     3     6
 0.0070048422     1    13     3     7
 0.0000000032     1    13     3     8
 -0.0000000016     1    13     3     9
 0.0000000019     1    13     4     6
 -0.0000000031     1    13     4     7
 -0.0059110362     1    13     4     8
 0.0028400522     1    13     4     9
 -0.0000458307     1    13     5     6
 0.0000753480     1    13     5     7
 -0.0000000005     1    13     5     8
 0.0000000003     1    13     5     9
 0.0991124322     1    13     6     1
 -0.0000000001     1    13     6     2
 -0.0114782958     1    13     6     3
 0.0000000064     1    13     6     4
 0.0016404779     1    13     6     5
 -0.0000000022     1    13     6    10
 -0.0000000017     1    13     6    11
 -0.1629457842     1    13     7     1
 0.0000000002     1    13     7     2
 0.0188708911     1    13     7     3
 -0.0000000105     1    13     7     4
 -0.0026970275     1    13     7     5
 0.0000000035     1    13     7    10
 0.0000000028     1    13     7    11
 -0.0000002235     1    13     8     1
 0.1948940485     1    13     8     2
 0.0000000113     1    13     8     3
 -0.0213189349     1    13     8     4
 -0.0000000019     1    13     8     5
 0.0076262338     1    13     8    10
 0.0051561679     1    13     8    11
 0.0000001074     1    13     9     1
 -0.0936399753     1    13     9     2
 -0.0000000054     1    13     9     3
 0.0102430246     1    13     9     4
 0.0000000009     1    13     9     5
 -0.0036641465     1    13     9    10
 -0.0024773636     1    13     9    11