&FCI NORB=  6,NELEC=  6,MS2=0,
 ORBSYM=1,1,1,1,1,1
 ISYM=1,
&END
 0.4792772035     1     1     2     2
 0.4792772035     1     1     3     3
 0.4316632708     1     1     4     4
 0.4316632708     1     1     5     5
 0.2917664886     1     1     6     6
 -0.4792772035     1     2     2     1
 -0.0014319875     1     2     4     6
 0.0014123701     1     2     5     6
 0.0023689085     1     2     6     4
 -0.0023364558     1     2     6     5
 -0.4792772035     1     3     3     1
 -0.0014123701     1     3     4     6
 -0.0014319875     1     3     5     6
 0.0023364558     1     3     6     4
 0.0023689085     1     3     6     5
 -0.0043944320     1     4     2     6
 -0.0043342306     1     4     3     6
 -0.4316632708     1     4     4     1
 -0.0023689085     1     4     6     2
 -0.0023364558     1     4     6     3
 0.0043342306     1     5     2     6
 -0.0043944320     1     5     3     6
 -0.4316632708     1     5     5     1
 0.0023364558     1     5     6     2
 -0.0023689085     1     5     6     3
 0.0043944320     1     6     2     4
 -0.0043342306     1     6     2     5
 0.0043342306     1     6     3     4
 0.0043944320     1     6     3     5
 0.0014319875     1     6     4     2
 0.0014123701     1     6     4     3
 -0.0014123701     1     6     5     2
 0.0014319875     1     6     5     3
 -0.2917664886     1     6     6     1
 -0.4792772035     2     1     1     2
 0.0023689085     2     1     4     6
 -0.0023364558     2     1     5     6
 -0.0014319875     2     1     6     4
 0.0014123701     2     1     6     5
 0.4792772035     2     2     1     1
 0.5113162195     2     2     3     3
 0.4129745015     2     2     4     4
 0.0322953001     2     2     4     5
 0.0322953001     2     2     5     4
 0.4138655022     2     2     5     5
 0.2765207835     2     2     6     6
 -0.5113162195     2     3     3     2
 -0.0322953001     2     3     4     4
 0.0366920796     2     3     4     5
 -0.0375830804     2     3     5     4
 0.0322953001     2     3     5     5
 0.0043944320     2     4     1     6
 0.0675097576     2     4     3     5
 -0.4129745015     2     4     4     2
 0.0322953001     2     4     4     3
 -0.0322953001     2     4     5     2
 0.0375830804     2     4     5     3
 0.0014319875     2     4     6     1
 -0.0043342306     2     5     1     6
 -0.0675097576     2     5     3     4
 -0.0322953001     2     5     4     2
 -0.0366920796     2     5     4     3
 -0.4138655022     2     5     5     2
 -0.0322953001     2     5     5     3
 -0.0014123701     2     5     6     1
 -0.0043944320     2     6     1     4
 0.0043342306     2     6     1     5
 -0.0023689085     2     6     4     1
 0.0023364558     2     6     5     1
 -0.2765207835     2     6     6     2
 -0.4792772035     3     1     1     3
 0.0023364558     3     1     4     6
 0.0023689085     3     1     5     6
 -0.0014123701     3     1     6     4
 -0.0014319875     3     1     6     5
 -0.5113162195     3     2     2     3
 -0.0322953001     3     2     4     4
 -0.0375830804     3     2     4     5
 0.0366920796     3     2     5     4
 0.0322953001     3     2     5     5
 0.4792772035     3     3     1     1
 0.5113162195     3     3     2     2
 0.4138655022     3     3     4     4
 -0.0322953001     3     3     4     5
 -0.0322953001     3     3     5     4
 0.4129745015     3     3     5     5
 0.2765207835     3     3     6     6
 0.0043342306     3     4     1     6
 -0.0675097576     3     4     2     5
 0.0322953001     3     4     4     2
 -0.4138655022     3     4     4     3
 -0.0366920796     3     4     5     2
 0.0322953001     3     4     5     3
 0.0014123701     3     4     6     1
 0.0043944320     3     5     1     6
 0.0675097576     3     5     2     4
 0.0375830804     3     5     4     2
 0.0322953001     3     5     4     3
 -0.0322953001     3     5     5     2
 -0.4129745015     3     5     5     3
 0.0014319875     3     5     6     1
 -0.0043342306     3     6     1     4
 -0.0043944320     3     6     1     5
 -0.0023364558     3     6     4     1
 -0.0023689085     3     6     5     1
 -0.2765207835     3     6     6     3
 -0.4316632708     4     1     1     4
 -0.0023689085     4     1     2     6
 -0.0023364558     4     1     3     6
 -0.0043944320     4     1     6     2
 -0.0043342306     4     1     6     3
 0.0014319875     4     2     1     6
 -0.4129745015     4     2     2     4
 -0.0322953001     4     2     2     5
 0.0322953001     4     2     3     4
 0.0375830804     4     2     3     5
 0.0675097576     4     2     5     3
 0.0043944320     4     2     6     1
 0.0014123701     4     3     1     6
 0.0322953001     4     3     2     4
 -0.0366920796     4     3     2     5
 -0.4138655022     4     3     3     4
 0.0322953001     4     3     3     5
 -0.0675097576     4     3     5     2
 0.0043342306     4     3     6     1
 0.4316632708     4     4     1     1
 0.4129745015     4     4     2     2
 -0.0322953001     4     4     2     3
 -0.0322953001     4     4     3     2
 0.4138655022     4     4     3     3
 0.3985884755     4     4     5     5
 0.2711853581     4     4     6     6
 0.0322953001     4     5     2     2
 0.0366920796     4     5     2     3
 -0.0375830804     4     5     3     2
 -0.0322953001     4     5     3     3
 -0.3985884755     4     5     5     4
 -0.0014319875     4     6     1     2
 -0.0014123701     4     6     1     3
 0.0023689085     4     6     2     1
 0.0023364558     4     6     3     1
 -0.2711853581     4     6     6     4
 -0.4316632708     5     1     1     5
 0.0023364558     5     1     2     6
 -0.0023689085     5     1     3     6
 0.0043342306     5     1     6     2
 -0.0043944320     5     1     6     3
 -0.0014123701     5     2     1     6
 -0.0322953001     5     2     2     4
 -0.4138655022     5     2     2     5
 -0.0366920796     5     2     3     4
 -0.0322953001     5     2     3     5
 -0.0675097576     5     2     4     3
 -0.0043342306     5     2     6     1
 0.0014319875     5     3     1     6
 0.0375830804     5     3     2     4
 -0.0322953001     5     3     2     5
 0.0322953001     5     3     3     4
 -0.4129745015     5     3     3     5
 0.0675097576     5     3     4     2
 0.0043944320     5     3     6     1
 0.0322953001     5     4     2     2
 -0.0375830804     5     4     2     3
 0.0366920796     5     4     3     2
 -0.0322953001     5     4     3     3
 -0.3985884755     5     4     4     5
 0.4316632708     5     5     1     1
 0.4138655022     5     5     2     2
 0.0322953001     5     5     2     3
 0.0322953001     5     5     3     2
 0.4129745015     5     5     3     3
 0.3985884755     5     5     4     4
 0.2711853581     5     5     6     6
 0.0014123701     5     6     1     2
 -0.0014319875     5     6     1     3
 -0.0023364558     5     6     2     1
 0.0023689085     5     6     3     1
 -0.2711853581     5     6     6     5
 -0.2917664886     6     1     1     6
 0.0014319875     6     1     2     4
 -0.0014123701     6     1     2     5
 0.0014123701     6     1     3     4
 0.0014319875     6     1     3     5
 0.0043944320     6     1     4     2
 0.0043342306     6     1     4     3
 -0.0043342306     6     1     5     2
 0.0043944320     6     1     5     3
 -0.0023689085     6     2     1     4
 0.0023364558     6     2     1     5
 -0.2765207835     6     2     2     6
 -0.0043944320     6     2     4     1
 0.0043342306     6     2     5     1
 -0.0023364558     6     3     1     4
 -0.0023689085     6     3     1     5
 -0.2765207835     6     3     3     6
 -0.0043342306     6     3     4     1
 -0.0043944320     6     3     5     1
 0.0023689085     6     4     1     2
 0.0023364558     6     4     1     3
 -0.0014319875     6     4     2     1
 -0.0014123701     6     4     3     1
 -0.2711853581     6     4     4     6
 -0.0023364558     6     5     1     2
 0.0023689085     6     5     1     3
 0.0014123701     6     5     2     1
 -0.0014319875     6     5     3     1
 -0.2711853581     6     5     5     6
 0.2917664886     6     6     1     1
 0.2765207835     6     6     2     2
 0.2765207835     6     6     3     3
 0.2711853581     6     6     4     4
 0.2711853581     6     6     5     5
0.0 0 0 0 0
 0.4792772035     1     1     2     2
 0.4792772035     1     1     3     3
 0.4316632708     1     1     4     4
 0.4316632708     1     1     5     5
 0.2917664886     1     1     6     6
 -0.4792772035     1     2     2     1
 -0.0014319875     1     2     4     6
 0.0014123701     1     2     5     6
 0.0023689085     1     2     6     4
 -0.0023364558     1     2     6     5
 -0.4792772035     1     3     3     1
 -0.0014123701     1     3     4     6
 -0.0014319875     1     3     5     6
 0.0023364558     1     3     6     4
 0.0023689085     1     3     6     5
 -0.0043944320     1     4     2     6
 -0.0043342306     1     4     3     6
 -0.4316632708     1     4     4     1
 -0.0023689085     1     4     6     2
 -0.0023364558     1     4     6     3
 0.0043342306     1     5     2     6
 -0.0043944320     1     5     3     6
 -0.4316632708     1     5     5     1
 0.0023364558     1     5     6     2
 -0.0023689085     1     5     6     3
 0.0043944320     1     6     2     4
 -0.0043342306     1     6     2     5
 0.0043342306     1     6     3     4
 0.0043944320     1     6     3     5
 0.0014319875     1     6     4     2
 0.0014123701     1     6     4     3
 -0.0014123701     1     6     5     2
 0.0014319875     1     6     5     3
 -0.2917664886     1     6     6     1
 -0.4792772035     2     1     1     2
 0.0023689085     2     1     4     6
 -0.0023364558     2     1     5     6
 -0.0014319875     2     1     6     4
 0.0014123701     2     1     6     5
 0.4792772035     2     2     1     1
 0.5113162195     2     2     3     3
 0.4129745015     2     2     4     4
 0.0322953001     2     2     4     5
 0.0322953001     2     2     5     4
 0.4138655022     2     2     5     5
 0.2765207835     2     2     6     6
 -0.5113162195     2     3     3     2
 -0.0322953001     2     3     4     4
 0.0366920796     2     3     4     5
 -0.0375830804     2     3     5     4
 0.0322953001     2     3     5     5
 0.0043944320     2     4     1     6
 0.0675097576     2     4     3     5
 -0.4129745015     2     4     4     2
 0.0322953001     2     4     4     3
 -0.0322953001     2     4     5     2
 0.0375830804     2     4     5     3
 0.0014319875     2     4     6     1
 -0.0043342306     2     5     1     6
 -0.0675097576     2     5     3     4
 -0.0322953001     2     5     4     2
 -0.0366920796     2     5     4     3
 -0.4138655022     2     5     5     2
 -0.0322953001     2     5     5     3
 -0.0014123701     2     5     6     1
 -0.0043944320     2     6     1     4
 0.0043342306     2     6     1     5
 -0.0023689085     2     6     4     1
 0.0023364558     2     6     5     1
 -0.2765207835     2     6     6     2
 -0.4792772035     3     1     1     3
 0.0023364558     3     1     4     6
 0.0023689085     3     1     5     6
 -0.0014123701     3     1     6     4
 -0.0014319875     3     1     6     5
 -0.5113162195     3     2     2     3
 -0.0322953001     3     2     4     4
 -0.0375830804     3     2     4     5
 0.0366920796     3     2     5     4
 0.0322953001     3     2     5     5
 0.4792772035     3     3     1     1
 0.5113162195     3     3     2     2
 0.4138655022     3     3     4     4
 -0.0322953001     3     3     4     5
 -0.0322953001     3     3     5     4
 0.4129745015     3     3     5     5
 0.2765207835     3     3     6     6
 0.0043342306     3     4     1     6
 -0.0675097576     3     4     2     5
 0.0322953001     3     4     4     2
 -0.4138655022     3     4     4     3
 -0.0366920796     3     4     5     2
 0.0322953001     3     4     5     3
 0.0014123701     3     4     6     1
 0.0043944320     3     5     1     6
 0.0675097576     3     5     2     4
 0.0375830804     3     5     4     2
 0.0322953001     3     5     4     3
 -0.0322953001     3     5     5     2
 -0.4129745015     3     5     5     3
 0.0014319875     3     5     6     1
 -0.0043342306     3     6     1     4
 -0.0043944320     3     6     1     5
 -0.0023364558     3     6     4     1
 -0.0023689085     3     6     5     1
 -0.2765207835     3     6     6     3
 -0.4316632708     4     1     1     4
 -0.0023689085     4     1     2     6
 -0.0023364558     4     1     3     6
 -0.0043944320     4     1     6     2
 -0.0043342306     4     1     6     3
 0.0014319875     4     2     1     6
 -0.4129745015     4     2     2     4
 -0.0322953001     4     2     2     5
 0.0322953001     4     2     3     4
 0.0375830804     4     2     3     5
 0.0675097576     4     2     5     3
 0.0043944320     4     2     6     1
 0.0014123701     4     3     1     6
 0.0322953001     4     3     2     4
 -0.0366920796     4     3     2     5
 -0.4138655022     4     3     3     4
 0.0322953001     4     3     3     5
 -0.0675097576     4     3     5     2
 0.0043342306     4     3     6     1
 0.4316632708     4     4     1     1
 0.4129745015     4     4     2     2
 -0.0322953001     4     4     2     3
 -0.0322953001     4     4     3     2
 0.4138655022     4     4     3     3
 0.3985884755     4     4     5     5
 0.2711853581     4     4     6     6
 0.0322953001     4     5     2     2
 0.0366920796     4     5     2     3
 -0.0375830804     4     5     3     2
 -0.0322953001     4     5     3     3
 -0.3985884755     4     5     5     4
 -0.0014319875     4     6     1     2
 -0.0014123701     4     6     1     3
 0.0023689085     4     6     2     1
 0.0023364558     4     6     3     1
 -0.2711853581     4     6     6     4
 -0.4316632708     5     1     1     5
 0.0023364558     5     1     2     6
 -0.0023689085     5     1     3     6
 0.0043342306     5     1     6     2
 -0.0043944320     5     1     6     3
 -0.0014123701     5     2     1     6
 -0.0322953001     5     2     2     4
 -0.4138655022     5     2     2     5
 -0.0366920796     5     2     3     4
 -0.0322953001     5     2     3     5
 -0.0675097576     5     2     4     3
 -0.0043342306     5     2     6     1
 0.0014319875     5     3     1     6
 0.0375830804     5     3     2     4
 -0.0322953001     5     3     2     5
 0.0322953001     5     3     3     4
 -0.4129745015     5     3     3     5
 0.0675097576     5     3     4     2
 0.0043944320     5     3     6     1
 0.0322953001     5     4     2     2
 -0.0375830804     5     4     2     3
 0.0366920796     5     4     3     2
 -0.0322953001     5     4     3     3
 -0.3985884755     5     4     4     5
 0.4316632708     5     5     1     1
 0.4138655022     5     5     2     2
 0.0322953001     5     5     2     3
 0.0322953001     5     5     3     2
 0.4129745015     5     5     3     3
 0.3985884755     5     5     4     4
 0.2711853581     5     5     6     6
 0.0014123701     5     6     1     2
 -0.0014319875     5     6     1     3
 -0.0023364558     5     6     2     1
 0.0023689085     5     6     3     1
 -0.2711853581     5     6     6     5
 -0.2917664886     6     1     1     6
 0.0014319875     6     1     2     4
 -0.0014123701     6     1     2     5
 0.0014123701     6     1     3     4
 0.0014319875     6     1     3     5
 0.0043944320     6     1     4     2
 0.0043342306     6     1     4     3
 -0.0043342306     6     1     5     2
 0.0043944320     6     1     5     3
 -0.0023689085     6     2     1     4
 0.0023364558     6     2     1     5
 -0.2765207835     6     2     2     6
 -0.0043944320     6     2     4     1
 0.0043342306     6     2     5     1
 -0.0023364558     6     3     1     4
 -0.0023689085     6     3     1     5
 -0.2765207835     6     3     3     6
 -0.0043342306     6     3     4     1
 -0.0043944320     6     3     5     1
 0.0023689085     6     4     1     2
 0.0023364558     6     4     1     3
 -0.0014319875     6     4     2     1
 -0.0014123701     6     4     3     1
 -0.2711853581     6     4     4     6
 -0.0023364558     6     5     1     2
 0.0023689085     6     5     1     3
 0.0014123701     6     5     2     1
 -0.0014319875     6     5     3     1
 -0.2711853581     6     5     5     6
 0.2917664886     6     6     1     1
 0.2765207835     6     6     2     2
 0.2765207835     6     6     3     3
 0.2711853581     6     6     4     4
 0.2711853581     6     6     5     5
0.0 0 0 0 0
 0.5436270538     1     1     1     1
 0.5017438073     1     1     2     2
 0.5017438073     1     1     3     3
 0.4652102772     1     1     4     4
 0.4652102772     1     1     5     5
 0.3067173307     1     1     6     6
 0.0176549353     1     2     1     2
 0.0224666038     1     2     2     1
 -0.0029138913     1     2     4     6
 0.0028739726     1     2     5     6
 -0.0026897767     1     2     6     4
 0.0026529282     1     2     6     5
 0.0176549353     1     3     1     3
 0.0224666038     1     3     3     1
 -0.0028739726     1     3     4     6
 -0.0029138913     1     3     5     6
 -0.0026529282     1     3     6     4
 -0.0026897767     1     3     6     5
 0.0286426542     1     4     1     4
 -0.0064866790     1     4     2     6
 -0.0063978150     1     4     3     6
 0.0335470064     1     4     4     1
 -0.0050586852     1     4     6     2
 -0.0049893840     1     4     6     3
 0.0286426542     1     5     1     5
 0.0063978150     1     5     2     6
 -0.0064866790     1     5     3     6
 0.0335470064     1     5     5     1
 0.0049893840     1     5     6     2
 -0.0050586852     1     5     6     3
 0.0157588572     1     6     1     6
 -0.0020922470     1     6     2     4
 0.0020635844     1     6     2     5
 -0.0020635844     1     6     3     4
 -0.0020922470     1     6     3     5
 -0.0014819038     1     6     4     2
 -0.0014616025     1     6     4     3
 0.0014616025     1     6     5     2
 -0.0014819038     1     6     5     3
 0.0149508421     1     6     6     1
 0.0224666038     2     1     1     2
 0.0176549353     2     1     2     1
 -0.0026897767     2     1     4     6
 0.0026529282     2     1     5     6
 -0.0029138913     2     1     6     4
 0.0028739726     2     1     6     5
 0.5017438073     2     2     1     1
 0.5691928110     2     2     2     2
 0.5319717574     2     2     3     3
 0.4777350422     2     2     4     4
 -0.0177705670     2     2     4     5
 -0.0177705670     2     2     5     4
 0.4772447668     2     2     5     5
 0.2836646826     2     2     6     6
 0.0165655157     2     3     2     3
 0.0206555379     2     3     3     2
 0.0177705670     2     3     4     4
 0.0015454836     2     3     4     5
 -0.0010552083     2     3     5     4
 -0.0177705670     2     3     5     5
 -0.0020922470     2     4     1     6
 0.0637283821     2     4     2     4
 -0.0489517804     2     4     2     5
 0.0489517804     2     4     3     4
 0.0344301485     2     4     3     5
 0.0647605407     2     4     4     2
 0.0500658671     2     4     4     3
 -0.0500658671     2     4     5     2
 0.0365278721     2     4     5     3
 -0.0014819038     2     4     6     1
 0.0020635844     2     5     1     6
 -0.0489517804     2     5     2     4
 0.0623778428     2     5     2     5
 -0.0330796091     2     5     3     4
 -0.0489517804     2     5     3     5
 -0.0500658671     2     5     4     2
 -0.0351465960     2     5     4     3
 0.0633792646     2     5     5     2
 -0.0500658671     2     5     5     3
 0.0014616025     2     5     6     1
 -0.0064866790     2     6     1     4
 0.0063978150     2     6     1     5
 0.0079565301     2     6     2     6
 -0.0050586852     2     6     4     1
 0.0049893840     2     6     5     1
 0.0071438991     2     6     6     2
 0.0224666038     3     1     1     3
 0.0176549353     3     1     3     1
 -0.0026529282     3     1     4     6
 -0.0026897767     3     1     5     6
 -0.0028739726     3     1     6     4
 -0.0029138913     3     1     6     5
 0.0206555379     3     2     2     3
 0.0165655157     3     2     3     2
 0.0177705670     3     2     4     4
 -0.0010552083     3     2     4     5
 0.0015454836     3     2     5     4
 -0.0177705670     3     2     5     5
 0.5017438073     3     3     1     1
 0.5319717574     3     3     2     2
 0.5691928110     3     3     3     3
 0.4772447668     3     3     4     4
 0.0177705670     3     3     4     5
 0.0177705670     3     3     5     4
 0.4777350422     3     3     5     5
 0.2836646826     3     3     6     6
 -0.0020635844     3     4     1     6
 0.0489517804     3     4     2     4
 -0.0330796091     3     4     2     5
 0.0623778428     3     4     3     4
 0.0489517804     3     4     3     5
 0.0500658671     3     4     4     2
 0.0633792646     3     4     4     3
 -0.0351465960     3     4     5     2
 0.0500658671     3     4     5     3
 -0.0014616025     3     4     6     1
 -0.0020922470     3     5     1     6
 0.0344301485     3     5     2     4
 -0.0489517804     3     5     2     5
 0.0489517804     3     5     3     4
 0.0637283821     3     5     3     5
 0.0365278721     3     5     4     2
 0.0500658671     3     5     4     3
 -0.0500658671     3     5     5     2
 0.0647605407     3     5     5     3
 -0.0014819038     3     5     6     1
 -0.0063978150     3     6     1     4
 -0.0064866790     3     6     1     5
 0.0079565301     3     6     3     6
 -0.0049893840     3     6     4     1
 -0.0050586852     3     6     5     1
 0.0071438991     3     6     6     3
 0.0335470064     4     1     1     4
 -0.0050586852     4     1     2     6
 -0.0049893840     4     1     3     6
 0.0286426542     4     1     4     1
 -0.0064866790     4     1     6     2
 -0.0063978150     4     1     6     3
 -0.0014819038     4     2     1     6
 0.0647605407     4     2     2     4
 -0.0500658671     4     2     2     5
 0.0500658671     4     2     3     4
 0.0365278721     4     2     3     5
 0.0637283821     4     2     4     2
 0.0489517804     4     2     4     3
 -0.0489517804     4     2     5     2
 0.0344301485     4     2     5     3
 -0.0020922470     4     2     6     1
 -0.0014616025     4     3     1     6
 0.0500658671     4     3     2     4
 -0.0351465960     4     3     2     5
 0.0633792646     4     3     3     4
 0.0500658671     4     3     3     5
 0.0489517804     4     3     4     2
 0.0623778428     4     3     4     3
 -0.0330796091     4     3     5     2
 0.0489517804     4     3     5     3
 -0.0020635844     4     3     6     1
 0.4652102772     4     4     1     1
 0.4777350422     4     4     2     2
 0.0177705670     4     4     2     3
 0.0177705670     4     4     3     2
 0.4772447668     4     4     3     3
 0.4440629290     4     4     4     4
 0.4152368785     4     4     5     5
 0.2809668475     4     4     6     6
 -0.0177705670     4     5     2     2
 0.0015454836     4     5     2     3
 -0.0010552083     4     5     3     2
 0.0177705670     4     5     3     3
 0.0121776475     4     5     4     5
 0.0166484030     4     5     5     4
 -0.0029138913     4     6     1     2
 -0.0028739726     4     6     1     3
 -0.0026897767     4     6     2     1
 -0.0026529282     4     6     3     1
 0.0088596684     4     6     4     6
 0.0097814894     4     6     6     4
 0.0335470064     5     1     1     5
 0.0049893840     5     1     2     6
 -0.0050586852     5     1     3     6
 0.0286426542     5     1     5     1
 0.0063978150     5     1     6     2
 -0.0064866790     5     1     6     3
 0.0014616025     5     2     1     6
 -0.0500658671     5     2     2     4
 0.0633792646     5     2     2     5
 -0.0351465960     5     2     3     4
 -0.0500658671     5     2     3     5
 -0.0489517804     5     2     4     2
 -0.0330796091     5     2     4     3
 0.0623778428     5     2     5     2
 -0.0489517804     5     2     5     3
 0.0020635844     5     2     6     1
 -0.0014819038     5     3     1     6
 0.0365278721     5     3     2     4
 -0.0500658671     5     3     2     5
 0.0500658671     5     3     3     4
 0.0647605407     5     3     3     5
 0.0344301485     5     3     4     2
 0.0489517804     5     3     4     3
 -0.0489517804     5     3     5     2
 0.0637283821     5     3     5     3
 -0.0020922470     5     3     6     1
 -0.0177705670     5     4     2     2
 -0.0010552083     5     4     2     3
 0.0015454836     5     4     3     2
 0.0177705670     5     4     3     3
 0.0166484030     5     4     4     5
 0.0121776475     5     4     5     4
 0.4652102772     5     5     1     1
 0.4772447668     5     5     2     2
 -0.0177705670     5     5     2     3
 -0.0177705670     5     5     3     2
 0.4777350422     5     5     3     3
 0.4152368785     5     5     4     4
 0.4440629290     5     5     5     5
 0.2809668475     5     5     6     6
 0.0028739726     5     6     1     2
 -0.0029138913     5     6     1     3
 0.0026529282     5     6     2     1
 -0.0026897767     5     6     3     1
 0.0088596684     5     6     5     6
 0.0097814894     5     6     6     5
 0.0149508421     6     1     1     6
 -0.0014819038     6     1     2     4
 0.0014616025     6     1     2     5
 -0.0014616025     6     1     3     4
 -0.0014819038     6     1     3     5
 -0.0020922470     6     1     4     2
 -0.0020635844     6     1     4     3
 0.0020635844     6     1     5     2
 -0.0020922470     6     1     5     3
 0.0157588572     6     1     6     1
 -0.0050586852     6     2     1     4
 0.0049893840     6     2     1     5
 0.0071438991     6     2     2     6
 -0.0064866790     6     2     4     1
 0.0063978150     6     2     5     1
 0.0079565301     6     2     6     2
 -0.0049893840     6     3     1     4
 -0.0050586852     6     3     1     5
 0.0071438991     6     3     3     6
 -0.0063978150     6     3     4     1
 -0.0064866790     6     3     5     1
 0.0079565301     6     3     6     3
 -0.0026897767     6     4     1     2
 -0.0026529282     6     4     1     3
 -0.0029138913     6     4     2     1
 -0.0028739726     6     4     3     1
 0.0097814894     6     4     4     6
 0.0088596684     6     4     6     4
 0.0026529282     6     5     1     2
 -0.0026897767     6     5     1     3
 0.0028739726     6     5     2     1
 -0.0029138913     6     5     3     1
 0.0097814894     6     5     5     6
 0.0088596684     6     5     6     5
 0.3067173307     6     6     1     1
 0.2836646826     6     6     2     2
 0.2836646826     6     6     3     3
 0.2809668475     6     6     4     4
 0.2809668475     6     6     5     5
 0.3033015005     6     6     6     6
0.0 0 0 0 0
 -3.1851855201     1     1     0     0
 -3.2691908539     2     2     0     0
 -3.2691908539     3     3     0     0
 -2.4765313926     4     4     0     0
 -2.4765313926     5     5     0     0
 -1.2843550127     6     6     0     0
0.0 0 0 0 0
 -3.1851855201     1     1     0     0
 -3.2691908539     2     2     0     0
 -3.2691908539     3     3     0     0
 -2.4765313926     4     4     0     0
 -2.4765313926     5     5     0     0
 -1.2843550127     6     6     0     0
-97.5973077234 0 0 0 0
