&FCI NORB=  6,NELEC=  6,MS2=0,
 ORBSYM=1,1,1,1,1,1
 ISYM=1,
&END
 0.2686585671     1     1     2     2
 -0.0000000049     1     1     2     3
 -0.0000000049     1     1     3     2
 0.2652349955     1     1     3     3
 0.2576806278     1     1     4     4
 -0.0000000059     1     1     4     5
 -0.0000000059     1     1     5     4
 0.2614809228     1     1     5     5
 0.1892685966     1     1     6     6
 -0.2686585671     1     2     2     1
 -0.0010286312     1     2     2     6
 0.0000000049     1     2     3     1
 -0.0000000014     1     2     3     6
 0.0000000049     1     3     2     1
 -0.0000000014     1     3     2     6
 -0.2652349955     1     3     3     1
 0.0010286729     1     3     3     6
 -0.2576806278     1     4     4     1
 0.0002527627     1     4     4     6
 0.0000000059     1     4     5     1
 -0.0000000003     1     4     5     6
 0.0000000059     1     5     4     1
 -0.0000000003     1     5     4     6
 -0.2614809228     1     5     5     1
 -0.0002541725     1     5     5     6
 0.0010286312     1     6     2     2
 0.0000000014     1     6     2     3
 0.0000000014     1     6     3     2
 -0.0010286729     1     6     3     3
 -0.0002527627     1     6     4     4
 0.0000000003     1     6     4     5
 0.0000000003     1     6     5     4
 0.0002541725     1     6     5     5
 -0.1892685966     1     6     6     1
 -0.2686585671     2     1     1     2
 0.0000000049     2     1     1     3
 -0.0010286312     2     1     6     2
 -0.0000000014     2     1     6     3
 0.2686585671     2     2     1     1
 0.0010286312     2     2     1     6
 0.2505466726     2     2     3     3
 0.2299807807     2     2     4     4
 -0.0000000010     2     2     4     5
 -0.0000000010     2     2     5     4
 0.2390623842     2     2     5     5
 0.0010286312     2     2     6     1
 0.1877393316     2     2     6     6
 -0.0000000049     2     3     1     1
 0.0000000014     2     3     1     6
 -0.2505466726     2     3     3     2
 -0.0000000010     2     3     4     4
 0.0279437548     2     3     4     5
 -0.0188621425     2     3     5     4
 0.0000000010     2     3     5     5
 0.0000000014     2     3     6     1
 0.0456071683     2     4     3     5
 -0.2299807807     2     4     4     2
 0.0000000010     2     4     4     3
 0.0000000010     2     4     5     2
 0.0188621425     2     4     5     3
 -0.0456071683     2     5     3     4
 0.0000000010     2     5     4     2
 -0.0279437548     2     5     4     3
 -0.2390623842     2     5     5     2
 -0.0000000010     2     5     5     3
 -0.0010286312     2     6     1     2
 -0.0000000014     2     6     1     3
 -0.1877393316     2     6     6     2
 0.0000000049     3     1     1     2
 -0.2652349955     3     1     1     3
 -0.0000000014     3     1     6     2
 0.0010286729     3     1     6     3
 -0.0000000049     3     2     1     1
 0.0000000014     3     2     1     6
 -0.2505466726     3     2     2     3
 -0.0000000010     3     2     4     4
 -0.0188621425     3     2     4     5
 0.0279437548     3     2     5     4
 0.0000000010     3     2     5     5
 0.0000000014     3     2     6     1
 0.2652349955     3     3     1     1
 -0.0010286729     3     3     1     6
 0.2505466726     3     3     2     2
 0.2390623806     3     3     4     4
 0.0000000010     3     3     4     5
 0.0000000010     3     3     5     4
 0.2299807716     3     3     5     5
 -0.0010286729     3     3     6     1
 0.1877393129     3     3     6     6
 -0.0456071683     3     4     2     5
 0.0000000010     3     4     4     2
 -0.2390623806     3     4     4     3
 -0.0279437548     3     4     5     2
 -0.0000000010     3     4     5     3
 0.0456071683     3     5     2     4
 0.0188621425     3     5     4     2
 -0.0000000010     3     5     4     3
 -0.0000000010     3     5     5     2
 -0.2299807716     3     5     5     3
 -0.0000000014     3     6     1     2
 0.0010286729     3     6     1     3
 -0.1877393129     3     6     6     3
 -0.2576806278     4     1     1     4
 0.0000000059     4     1     1     5
 0.0002527627     4     1     6     4
 -0.0000000003     4     1     6     5
 -0.2299807807     4     2     2     4
 0.0000000010     4     2     2     5
 0.0000000010     4     2     3     4
 0.0188621425     4     2     3     5
 0.0456071683     4     2     5     3
 0.0000000010     4     3     2     4
 -0.0279437548     4     3     2     5
 -0.2390623806     4     3     3     4
 -0.0000000010     4     3     3     5
 -0.0456071683     4     3     5     2
 0.2576806278     4     4     1     1
 -0.0002527627     4     4     1     6
 0.2299807807     4     4     2     2
 -0.0000000010     4     4     2     3
 -0.0000000010     4     4     3     2
 0.2390623806     4     4     3     3
 0.2441609159     4     4     5     5
 -0.0002527627     4     4     6     1
 0.1840705989     4     4     6     6
 -0.0000000059     4     5     1     1
 0.0000000003     4     5     1     6
 -0.0000000010     4     5     2     2
 0.0279437548     4     5     2     3
 -0.0188621425     4     5     3     2
 0.0000000010     4     5     3     3
 -0.2441609159     4     5     5     4
 0.0000000003     4     5     6     1
 0.0002527627     4     6     1     4
 -0.0000000003     4     6     1     5
 -0.1840705989     4     6     6     4
 0.0000000059     5     1     1     4
 -0.2614809228     5     1     1     5
 -0.0000000003     5     1     6     4
 -0.0002541725     5     1     6     5
 0.0000000010     5     2     2     4
 -0.2390623842     5     2     2     5
 -0.0279437548     5     2     3     4
 -0.0000000010     5     2     3     5
 -0.0456071683     5     2     4     3
 0.0188621425     5     3     2     4
 -0.0000000010     5     3     2     5
 -0.0000000010     5     3     3     4
 -0.2299807716     5     3     3     5
 0.0456071683     5     3     4     2
 -0.0000000059     5     4     1     1
 0.0000000003     5     4     1     6
 -0.0000000010     5     4     2     2
 -0.0188621425     5     4     2     3
 0.0279437548     5     4     3     2
 0.0000000010     5     4     3     3
 -0.2441609159     5     4     4     5
 0.0000000003     5     4     6     1
 0.2614809228     5     5     1     1
 0.0002541725     5     5     1     6
 0.2390623842     5     5     2     2
 0.0000000010     5     5     2     3
 0.0000000010     5     5     3     2
 0.2299807716     5     5     3     3
 0.2441609159     5     5     4     4
 0.0002541725     5     5     6     1
 0.1840706075     5     5     6     6
 -0.0000000003     5     6     1     4
 -0.0002541725     5     6     1     5
 -0.1840706075     5     6     6     5
 -0.1892685966     6     1     1     6
 0.0010286312     6     1     2     2
 0.0000000014     6     1     2     3
 0.0000000014     6     1     3     2
 -0.0010286729     6     1     3     3
 -0.0002527627     6     1     4     4
 0.0000000003     6     1     4     5
 0.0000000003     6     1     5     4
 0.0002541725     6     1     5     5
 -0.0010286312     6     2     2     1
 -0.1877393316     6     2     2     6
 -0.0000000014     6     2     3     1
 -0.0000000014     6     3     2     1
 0.0010286729     6     3     3     1
 -0.1877393129     6     3     3     6
 0.0002527627     6     4     4     1
 -0.1840705989     6     4     4     6
 -0.0000000003     6     4     5     1
 -0.0000000003     6     5     4     1
 -0.0002541725     6     5     5     1
 -0.1840706075     6     5     5     6
 0.1892685966     6     6     1     1
 0.1877393316     6     6     2     2
 0.1877393129     6     6     3     3
 0.1840705989     6     6     4     4
 0.1840706075     6     6     5     5
0.0 0 0 0 0
 0.2686585671     1     1     2     2
 -0.0000000049     1     1     2     3
 -0.0000000049     1     1     3     2
 0.2652349955     1     1     3     3
 0.2576806278     1     1     4     4
 -0.0000000059     1     1     4     5
 -0.0000000059     1     1     5     4
 0.2614809228     1     1     5     5
 0.1892685966     1     1     6     6
 -0.2686585671     1     2     2     1
 -0.0010286312     1     2     2     6
 0.0000000049     1     2     3     1
 -0.0000000014     1     2     3     6
 0.0000000049     1     3     2     1
 -0.0000000014     1     3     2     6
 -0.2652349955     1     3     3     1
 0.0010286729     1     3     3     6
 -0.2576806278     1     4     4     1
 0.0002527627     1     4     4     6
 0.0000000059     1     4     5     1
 -0.0000000003     1     4     5     6
 0.0000000059     1     5     4     1
 -0.0000000003     1     5     4     6
 -0.2614809228     1     5     5     1
 -0.0002541725     1     5     5     6
 0.0010286312     1     6     2     2
 0.0000000014     1     6     2     3
 0.0000000014     1     6     3     2
 -0.0010286729     1     6     3     3
 -0.0002527627     1     6     4     4
 0.0000000003     1     6     4     5
 0.0000000003     1     6     5     4
 0.0002541725     1     6     5     5
 -0.1892685966     1     6     6     1
 -0.2686585671     2     1     1     2
 0.0000000049     2     1     1     3
 -0.0010286312     2     1     6     2
 -0.0000000014     2     1     6     3
 0.2686585671     2     2     1     1
 0.0010286312     2     2     1     6
 0.2505466726     2     2     3     3
 0.2299807807     2     2     4     4
 -0.0000000010     2     2     4     5
 -0.0000000010     2     2     5     4
 0.2390623842     2     2     5     5
 0.0010286312     2     2     6     1
 0.1877393316     2     2     6     6
 -0.0000000049     2     3     1     1
 0.0000000014     2     3     1     6
 -0.2505466726     2     3     3     2
 -0.0000000010     2     3     4     4
 0.0279437548     2     3     4     5
 -0.0188621425     2     3     5     4
 0.0000000010     2     3     5     5
 0.0000000014     2     3     6     1
 0.0456071683     2     4     3     5
 -0.2299807807     2     4     4     2
 0.0000000010     2     4     4     3
 0.0000000010     2     4     5     2
 0.0188621425     2     4     5     3
 -0.0456071683     2     5     3     4
 0.0000000010     2     5     4     2
 -0.0279437548     2     5     4     3
 -0.2390623842     2     5     5     2
 -0.0000000010     2     5     5     3
 -0.0010286312     2     6     1     2
 -0.0000000014     2     6     1     3
 -0.1877393316     2     6     6     2
 0.0000000049     3     1     1     2
 -0.2652349955     3     1     1     3
 -0.0000000014     3     1     6     2
 0.0010286729     3     1     6     3
 -0.0000000049     3     2     1     1
 0.0000000014     3     2     1     6
 -0.2505466726     3     2     2     3
 -0.0000000010     3     2     4     4
 -0.0188621425     3     2     4     5
 0.0279437548     3     2     5     4
 0.0000000010     3     2     5     5
 0.0000000014     3     2     6     1
 0.2652349955     3     3     1     1
 -0.0010286729     3     3     1     6
 0.2505466726     3     3     2     2
 0.2390623806     3     3     4     4
 0.0000000010     3     3     4     5
 0.0000000010     3     3     5     4
 0.2299807716     3     3     5     5
 -0.0010286729     3     3     6     1
 0.1877393129     3     3     6     6
 -0.0456071683     3     4     2     5
 0.0000000010     3     4     4     2
 -0.2390623806     3     4     4     3
 -0.0279437548     3     4     5     2
 -0.0000000010     3     4     5     3
 0.0456071683     3     5     2     4
 0.0188621425     3     5     4     2
 -0.0000000010     3     5     4     3
 -0.0000000010     3     5     5     2
 -0.2299807716     3     5     5     3
 -0.0000000014     3     6     1     2
 0.0010286729     3     6     1     3
 -0.1877393129     3     6     6     3
 -0.2576806278     4     1     1     4
 0.0000000059     4     1     1     5
 0.0002527627     4     1     6     4
 -0.0000000003     4     1     6     5
 -0.2299807807     4     2     2     4
 0.0000000010     4     2     2     5
 0.0000000010     4     2     3     4
 0.0188621425     4     2     3     5
 0.0456071683     4     2     5     3
 0.0000000010     4     3     2     4
 -0.0279437548     4     3     2     5
 -0.2390623806     4     3     3     4
 -0.0000000010     4     3     3     5
 -0.0456071683     4     3     5     2
 0.2576806278     4     4     1     1
 -0.0002527627     4     4     1     6
 0.2299807807     4     4     2     2
 -0.0000000010     4     4     2     3
 -0.0000000010     4     4     3     2
 0.2390623806     4     4     3     3
 0.2441609159     4     4     5     5
 -0.0002527627     4     4     6     1
 0.1840705989     4     4     6     6
 -0.0000000059     4     5     1     1
 0.0000000003     4     5     1     6
 -0.0000000010     4     5     2     2
 0.0279437548     4     5     2     3
 -0.0188621425     4     5     3     2
 0.0000000010     4     5     3     3
 -0.2441609159     4     5     5     4
 0.0000000003     4     5     6     1
 0.0002527627     4     6     1     4
 -0.0000000003     4     6     1     5
 -0.1840705989     4     6     6     4
 0.0000000059     5     1     1     4
 -0.2614809228     5     1     1     5
 -0.0000000003     5     1     6     4
 -0.0002541725     5     1     6     5
 0.0000000010     5     2     2     4
 -0.2390623842     5     2     2     5
 -0.0279437548     5     2     3     4
 -0.0000000010     5     2     3     5
 -0.0456071683     5     2     4     3
 0.0188621425     5     3     2     4
 -0.0000000010     5     3     2     5
 -0.0000000010     5     3     3     4
 -0.2299807716     5     3     3     5
 0.0456071683     5     3     4     2
 -0.0000000059     5     4     1     1
 0.0000000003     5     4     1     6
 -0.0000000010     5     4     2     2
 -0.0188621425     5     4     2     3
 0.0279437548     5     4     3     2
 0.0000000010     5     4     3     3
 -0.2441609159     5     4     4     5
 0.0000000003     5     4     6     1
 0.2614809228     5     5     1     1
 0.0002541725     5     5     1     6
 0.2390623842     5     5     2     2
 0.0000000010     5     5     2     3
 0.0000000010     5     5     3     2
 0.2299807716     5     5     3     3
 0.2441609159     5     5     4     4
 0.0002541725     5     5     6     1
 0.1840706075     5     5     6     6
 -0.0000000003     5     6     1     4
 -0.0002541725     5     6     1     5
 -0.1840706075     5     6     6     5
 -0.1892685966     6     1     1     6
 0.0010286312     6     1     2     2
 0.0000000014     6     1     2     3
 0.0000000014     6     1     3     2
 -0.0010286729     6     1     3     3
 -0.0002527627     6     1     4     4
 0.0000000003     6     1     4     5
 0.0000000003     6     1     5     4
 0.0002541725     6     1     5     5
 -0.0010286312     6     2     2     1
 -0.1877393316     6     2     2     6
 -0.0000000014     6     2     3     1
 -0.0000000014     6     3     2     1
 0.0010286729     6     3     3     1
 -0.1877393129     6     3     3     6
 0.0002527627     6     4     4     1
 -0.1840705989     6     4     4     6
 -0.0000000003     6     4     5     1
 -0.0000000003     6     5     4     1
 -0.0002541725     6     5     5     1
 -0.1840706075     6     5     5     6
 0.1892685966     6     6     1     1
 0.1877393316     6     6     2     2
 0.1877393129     6     6     3     3
 0.1840705989     6     6     4     4
 0.1840706075     6     6     5     5
0.0 0 0 0 0
 0.2912663091     1     1     1     1
 0.0023823184     1     1     1     6
 0.2730485537     1     1     2     2
 -0.0000000031     1     1     2     3
 -0.0000000031     1     1     3     2
 0.2708832296     1     1     3     3
 0.2619434755     1     1     4     4
 -0.0000000091     1     1     4     5
 -0.0000000091     1     1     5     4
 0.2678480780     1     1     5     5
 0.0023823184     1     1     6     1
 0.1954741740     1     1     6     6
 0.0028100337     1     2     1     2
 0.0000000022     1     2     1     3
 0.0043899866     1     2     2     1
 -0.0000942023     1     2     2     6
 0.0000000018     1     2     3     1
 -0.0000000001     1     2     3     6
 0.0000187357     1     2     6     2
 0.0000000022     1     3     1     2
 0.0043452960     1     3     1     3
 0.0000000018     1     3     2     1
 -0.0000000001     1     3     2     6
 0.0056482341     1     3     3     1
 0.0000941997     1     3     3     6
 -0.0000187383     1     3     6     3
 0.0035698481     1     4     1     4
 -0.0000000018     1     4     1     5
 0.0042628477     1     4     4     1
 0.0011004369     1     4     4     6
 -0.0000000032     1     4     5     1
 -0.0000000013     1     4     5     6
 0.0010100091     1     4     6     4
 -0.0000000012     1     4     6     5
 -0.0000000018     1     5     1     4
 0.0047275570     1     5     1     5
 -0.0000000032     1     5     4     1
 -0.0000000013     1     5     4     6
 0.0063671552     1     5     5     1
 -0.0011004400     1     5     5     6
 -0.0000000012     1     5     6     4
 -0.0009873432     1     5     6     5
 0.0023823184     1     6     1     1
 0.0071974754     1     6     1     6
 0.0009344289     1     6     2     2
 0.0000000013     1     6     2     3
 0.0000000013     1     6     3     2
 -0.0009344732     1     6     3     3
 0.0008476742     1     6     4     4
 -0.0000000010     1     6     4     5
 -0.0000000010     1     6     5     4
 -0.0008462675     1     6     5     5
 0.0062055774     1     6     6     1
 0.0000165764     1     6     6     6
 0.0043899866     2     1     1     2
 0.0000000018     2     1     1     3
 0.0028100337     2     1     2     1
 0.0000187357     2     1     2     6
 0.0000000022     2     1     3     1
 -0.0000942023     2     1     6     2
 -0.0000000001     2     1     6     3
 0.2730485537     2     2     1     1
 0.0009344289     2     2     1     6
 0.3139731320     2     2     2     2
 0.2722714371     2     2     3     3
 0.2703717758     2     2     4     4
 -0.0000000030     2     2     4     5
 -0.0000000030     2     2     5     4
 0.2971634107     2     2     5     5
 0.0009344289     2     2     6     1
 0.1898334604     2     2     6     6
 -0.0000000031     2     3     1     1
 0.0000000013     2     3     1     6
 0.0199769513     2     3     2     3
 0.0217247645     2     3     3     2
 -0.0000000030     2     3     4     4
 0.0137732624     2     3     4     5
 0.0130184003     2     3     5     4
 0.0000000030     2     3     5     5
 0.0000000013     2     3     6     1
 0.0337290312     2     4     2     4
 -0.0000000029     2     4     2     5
 -0.0000000029     2     4     3     4
 0.0357923556     2     4     3     5
 0.0403909951     2     4     4     2
 -0.0000000020     2     4     4     3
 -0.0000000020     2     4     5     2
 0.0318805428     2     4     5     3
 -0.0000000029     2     5     2     4
 0.0597130596     2     5     2     5
 -0.0098148127     2     5     3     4
 0.0000000029     2     5     3     5
 -0.0000000020     2     5     4     2
 -0.0141704924     2     5     4     3
 0.0581010265     2     5     5     2
 0.0000000020     2     5     5     3
 -0.0000942023     2     6     1     2
 -0.0000000001     2     6     1     3
 0.0000187357     2     6     2     1
 0.0018774019     2     6     2     6
 0.0020941288     2     6     6     2
 0.0000000018     3     1     1     2
 0.0056482341     3     1     1     3
 0.0000000022     3     1     2     1
 0.0043452960     3     1     3     1
 -0.0000187383     3     1     3     6
 -0.0000000001     3     1     6     2
 0.0000941997     3     1     6     3
 -0.0000000031     3     2     1     1
 0.0000000013     3     2     1     6
 0.0217247645     3     2     2     3
 0.0199769513     3     2     3     2
 -0.0000000030     3     2     4     4
 0.0130184003     3     2     4     5
 0.0137732624     3     2     5     4
 0.0000000030     3     2     5     5
 0.0000000013     3     2     6     1
 0.2708832296     3     3     1     1
 -0.0009344732     3     3     1     6
 0.2722714371     3     3     2     2
 0.3139731297     3     3     3     3
 0.2971634277     3     3     4     4
 0.0000000030     3     3     4     5
 0.0000000030     3     3     5     4
 0.2703717591     3     3     5     5
 -0.0009344732     3     3     6     1
 0.1898334387     3     3     6     6
 -0.0000000029     3     4     2     4
 -0.0098148127     3     4     2     5
 0.0597116568     3     4     3     4
 0.0000000029     3     4     3     5
 -0.0000000020     3     4     4     2
 0.0581010471     3     4     4     3
 -0.0141704924     3     4     5     2
 0.0000000020     3     4     5     3
 0.0357923556     3     5     2     4
 0.0000000029     3     5     2     5
 0.0000000029     3     5     3     4
 0.0337427998     3     5     3     5
 0.0318805428     3     5     4     2
 0.0000000020     3     5     4     3
 0.0000000020     3     5     5     2
 0.0403909875     3     5     5     3
 -0.0000000001     3     6     1     2
 0.0000941997     3     6     1     3
 -0.0000187383     3     6     3     1
 0.0018869775     3     6     3     6
 0.0020941258     3     6     6     3
 0.0042628477     4     1     1     4
 -0.0000000032     4     1     1     5
 0.0035698481     4     1     4     1
 0.0010100091     4     1     4     6
 -0.0000000018     4     1     5     1
 -0.0000000012     4     1     5     6
 0.0011004369     4     1     6     4
 -0.0000000013     4     1     6     5
 0.0403909951     4     2     2     4
 -0.0000000020     4     2     2     5
 -0.0000000020     4     2     3     4
 0.0318805428     4     2     3     5
 0.0337290312     4     2     4     2
 -0.0000000029     4     2     4     3
 -0.0000000029     4     2     5     2
 0.0357923556     4     2     5     3
 -0.0000000020     4     3     2     4
 -0.0141704924     4     3     2     5
 0.0581010471     4     3     3     4
 0.0000000020     4     3     3     5
 -0.0000000029     4     3     4     2
 0.0597116568     4     3     4     3
 -0.0098148127     4     3     5     2
 0.0000000029     4     3     5     3
 0.2619434755     4     4     1     1
 0.0008476742     4     4     1     6
 0.2703717758     4     4     2     2
 -0.0000000030     4     4     2     3
 -0.0000000030     4     4     3     2
 0.2971634277     4     4     3     3
 0.2806400195     4     4     4     4
 0.2567926961     4     4     5     5
 0.0008476742     4     4     6     1
 0.1859416922     4     4     6     6
 -0.0000000091     4     5     1     1
 -0.0000000010     4     5     1     6
 -0.0000000030     4     5     2     2
 0.0137732624     4     5     2     3
 0.0130184003     4     5     3     2
 0.0000000030     4     5     3     3
 0.0112231003     4     5     4     5
 0.0126317802     4     5     5     4
 -0.0000000010     4     5     6     1
 0.0011004369     4     6     1     4
 -0.0000000013     4     6     1     5
 0.0010100091     4     6     4     1
 0.0015381248     4     6     4     6
 -0.0000000012     4     6     5     1
 0.0018710933     4     6     6     4
 -0.0000000032     5     1     1     4
 0.0063671552     5     1     1     5
 -0.0000000018     5     1     4     1
 -0.0000000012     5     1     4     6
 0.0047275570     5     1     5     1
 -0.0009873432     5     1     5     6
 -0.0000000013     5     1     6     4
 -0.0011004400     5     1     6     5
 -0.0000000020     5     2     2     4
 0.0581010265     5     2     2     5
 -0.0141704924     5     2     3     4
 0.0000000020     5     2     3     5
 -0.0000000029     5     2     4     2
 -0.0098148127     5     2     4     3
 0.0597130596     5     2     5     2
 0.0000000029     5     2     5     3
 0.0318805428     5     3     2     4
 0.0000000020     5     3     2     5
 0.0000000020     5     3     3     4
 0.0403909875     5     3     3     5
 0.0357923556     5     3     4     2
 0.0000000029     5     3     4     3
 0.0000000029     5     3     5     2
 0.0337427998     5     3     5     3
 -0.0000000091     5     4     1     1
 -0.0000000010     5     4     1     6
 -0.0000000030     5     4     2     2
 0.0130184003     5     4     2     3
 0.0137732624     5     4     3     2
 0.0000000030     5     4     3     3
 0.0126317802     5     4     4     5
 0.0112231003     5     4     5     4
 -0.0000000010     5     4     6     1
 0.2678480780     5     5     1     1
 -0.0008462675     5     5     1     6
 0.2971634107     5     5     2     2
 0.0000000030     5     5     2     3
 0.0000000030     5     5     3     2
 0.2703717591     5     5     3     3
 0.2567926961     5     5     4     4
 0.2806593098     5     5     5     5
 -0.0008462675     5     5     6     1
 0.1859417041     5     5     6     6
 -0.0000000013     5     6     1     4
 -0.0011004400     5     6     1     5
 -0.0000000012     5     6     4     1
 -0.0009873432     5     6     5     1
 0.0015497722     5     6     5     6
 0.0018710966     5     6     6     5
 0.0023823184     6     1     1     1
 0.0062055774     6     1     1     6
 0.0009344289     6     1     2     2
 0.0000000013     6     1     2     3
 0.0000000013     6     1     3     2
 -0.0009344732     6     1     3     3
 0.0008476742     6     1     4     4
 -0.0000000010     6     1     4     5
 -0.0000000010     6     1     5     4
 -0.0008462675     6     1     5     5
 0.0071974754     6     1     6     1
 0.0000165764     6     1     6     6
 0.0000187357     6     2     1     2
 -0.0000942023     6     2     2     1
 0.0020941288     6     2     2     6
 -0.0000000001     6     2     3     1
 0.0018774019     6     2     6     2
 -0.0000187383     6     3     1     3
 -0.0000000001     6     3     2     1
 0.0000941997     6     3     3     1
 0.0020941258     6     3     3     6
 0.0018869775     6     3     6     3
 0.0010100091     6     4     1     4
 -0.0000000012     6     4     1     5
 0.0011004369     6     4     4     1
 0.0018710933     6     4     4     6
 -0.0000000013     6     4     5     1
 0.0015381248     6     4     6     4
 -0.0000000012     6     5     1     4
 -0.0009873432     6     5     1     5
 -0.0000000013     6     5     4     1
 -0.0011004400     6     5     5     1
 0.0018710966     6     5     5     6
 0.0015497722     6     5     6     5
 0.1954741740     6     6     1     1
 0.0000165764     6     6     1     6
 0.1898334604     6     6     2     2
 0.1898334387     6     6     3     3
 0.1859416922     6     6     4     4
 0.1859417041     6     6     5     5
 0.0000165764     6     6     6     1
 0.1713853311     6     6     6     6
0.0 0 0 0 0
 -1.9063991597     1     1     0     0
 -0.0024002574     1     6     0     0
 -1.7732242397     2     2     0     0
 0.0000000080     2     3     0     0
 0.0000000080     3     2     0     0
 -1.7676352214     3     3     0     0
 -1.3835203001     4     4     0     0
 0.0000000149     4     5     0     0
 0.0000000149     5     4     0     0
 -1.3932444075     5     5     0     0
 -0.0024002574     6     1     0     0
 -0.9472887244     6     6     0     0
0.0 0 0 0 0
 -1.9063991597     1     1     0     0
 -0.0024002574     1     6     0     0
 -1.7732242397     2     2     0     0
 0.0000000080     2     3     0     0
 0.0000000080     3     2     0     0
 -1.7676352214     3     3     0     0
 -1.3835203001     4     4     0     0
 0.0000000149     4     5     0     0
 0.0000000149     5     4     0     0
 -1.3932444075     5     5     0     0
 -0.0024002574     6     1     0     0
 -0.9472887244     6     6     0     0
-224.6672571936 0 0 0 0
