&FCI NORB= 13,NELEC= 14,MS2=0,
 ORBSYM=1,1,1,1,1,1,1,1,1,1,1,1,1
 ISYM=1,
&END
 0.4837805018     1     1     2     2
 0.0076654026     1     1     2     4
 0.0006718612     1     1     2    10
 0.8035892831     1     1     3     3
 0.1016777757     1     1     3     5
 -0.0931789164     1     1     3    11
 0.0076654026     1     1     4     2
 0.6360276120     1     1     4     4
 -0.1191223472     1     1     4    10
 0.1016777757     1     1     5     3
 0.6762294423     1     1     5     5
 -0.1485866778     1     1     5    11
 0.6747804465     1     1     6     6
 0.1016897403     1     1     6    12
 0.1868495920     1     1     6    13
 0.6747804465     1     1     7     7
 -0.1868495920     1     1     7    12
 0.1016897403     1     1     7    13
 0.6043986722     1     1     8     8
 0.6043986722     1     1     9     9
 0.0006718612     1     1    10     2
 -0.1191223472     1     1    10     4
 0.4014259500     1     1    10    10
 -0.0931789164     1     1    11     3
 -0.1485866778     1     1    11     5
 0.4839744625     1     1    11    11
 0.1016897403     1     1    12     6
 -0.1868495920     1     1    12     7
 0.5711395039     1     1    12    12
 0.1868495920     1     1    13     6
 0.1016897403     1     1    13     7
 0.5711395039     1     1    13    13
 -0.4837805018     1     2     2     1
 -0.0103521210     1     2     2     3
 -0.0166606457     1     2     2     5
 0.0112048238     1     2     2    11
 -0.1427372770     1     2     3     4
 0.0928708682     1     2     3    10
 -0.0076654026     1     2     4     1
 -0.1430794584     1     2     4     3
 0.2333127911     1     2     4     5
 -0.0205211875     1     2     4    11
 0.2338393030     1     2     5     4
 0.0058327381     1     2     5    10
 0.1755769524     1     2     6     8
 -0.0604941310     1     2     6     9
 0.0604941310     1     2     7     8
 0.1755769524     1     2     7     9
 0.1751081117     1     2     8     6
 0.0603325944     1     2     8     7
 0.0208603544     1     2     8    12
 0.1240530090     1     2     8    13
 -0.0603325944     1     2     9     6
 0.1751081117     1     2     9     7
 -0.1240530090     1     2     9    12
 0.0208603544     1     2     9    13
 -0.0006718612     1     2    10     1
 0.0927477518     1     2    10     3
 0.0057797886     1     2    10     5
 0.0494857532     1     2    10    11
 -0.0208866187     1     2    11     4
 0.0494437085     1     2    11    10
 0.0209374443     1     2    12     8
 -0.1245114504     1     2    12     9
 0.1245114504     1     2    13     8
 0.0209374443     1     2    13     9
 0.0103521210     1     3     2     2
 0.0003307571     1     3     2     4
 0.0000708360     1     3     2    10
 -0.8035892831     1     3     3     1
 -0.0219825846     1     3     3     5
 0.0154770786     1     3     3    11
 0.1430794584     1     3     4     2
 -0.0091940395     1     3     4     4
 -0.0001727517     1     3     4    10
 -0.1016777757     1     3     5     1
 -0.0244313261     1     3     5     5
 0.0115454498     1     3     5    11
 -0.0172620329     1     3     6     6
 -0.0098291729     1     3     6    12
 -0.0180605924     1     3     6    13
 -0.0172620329     1     3     7     7
 0.0180605924     1     3     7    12
 -0.0098291729     1     3     7    13
 -0.0135300987     1     3     8     8
 -0.0135300987     1     3     9     9
 -0.0927477518     1     3    10     2
 -0.0013502214     1     3    10     4
 -0.0004983079     1     3    10    10
 0.0931789164     1     3    11     1
 0.0109824970     1     3    11     5
 -0.0064109210     1     3    11    11
 -0.0057091108     1     3    12     6
 0.0104901931     1     3    12     7
 -0.0139212304     1     3    12    12
 -0.0104901931     1     3    13     6
 -0.0057091108     1     3    13     7
 -0.0139212304     1     3    13    13
 -0.0076654026     1     4     2     1
 -0.0003307571     1     4     2     3
 -0.0005282210     1     4     2     5
 0.0003778980     1     4     2    11
 0.1427372770     1     4     3     2
 0.0013902371     1     4     3    10
 -0.6360276120     1     4     4     1
 0.0091940395     1     4     4     3
 0.0022329639     1     4     4     5
 -0.0063712917     1     4     4    11
 -0.2338393030     1     4     5     2
 0.0047142630     1     4     5    10
 0.0102043165     1     4     6     8
 -0.0035158445     1     4     6     9
 0.0035158445     1     4     7     8
 0.0102043165     1     4     7     9
 0.0120789636     1     4     8     6
 0.0041617444     1     4     8     7
 0.0030934232     1     4     8    12
 0.0183960660     1     4     8    13
 -0.0041617444     1     4     9     6
 0.0120789636     1     4     9     7
 -0.0183960660     1     4     9    12
 0.0030934232     1     4     9    13
 0.1191223472     1     4    10     1
 0.0013502214     1     4    10     3
 0.0030418253     1     4    10     5
 -0.0040823955     1     4    10    11
 0.0208866187     1     4    11     2
 -0.0043017123     1     4    11    10
 0.0017630706     1     4    12     8
 -0.0104846835     1     4    12     9
 0.0104846835     1     4    13     8
 0.0017630706     1     4    13     9
 0.0166606457     1     5     2     2
 0.0005282210     1     5     2     4
 0.0000535216     1     5     2    10
 -0.1016777757     1     5     3     1
 0.0219825846     1     5     3     3
 0.0005050639     1     5     3    11
 -0.2333127911     1     5     4     2
 -0.0022329639     1     5     4     4
 0.0015280821     1     5     4    10
 -0.6762294423     1     5     5     1
 0.0244313261     1     5     5     3
 -0.0096284177     1     5     5    11
 0.0146071396     1     5     6     6
 0.0054246183     1     5     6    12
 0.0099674531     1     5     6    13
 0.0146071396     1     5     7     7
 -0.0099674531     1     5     7    12
 0.0054246183     1     5     7    13
 0.0086554107     1     5     8     8
 0.0086554107     1     5     9     9
 -0.0057797886     1     5    10     2
 -0.0030418253     1     5    10     4
 0.0008609227     1     5    10    10
 0.1485866778     1     5    11     1
 -0.0109824970     1     5    11     3
 0.0036797998     1     5    11    11
 0.0032234083     1     5    12     6
 -0.0059228447     1     5    12     7
 0.0082644452     1     5    12    12
 0.0059228447     1     5    13     6
 0.0032234083     1     5    13     7
 0.0082644452     1     5    13    13
 0.0004504969     1     6     2     8
 -0.0001552164     1     6     2     9
 -0.0039649092     1     6     3    12
 -0.0072853137     1     6     3    13
 -0.0024071924     1     6     4     8
 0.0008293856     1     6     4     9
 0.0021160066     1     6     5    12
 0.0038880517     1     6     5    13
 -0.6747804465     1     6     6     1
 0.0172620329     1     6     6     3
 -0.0146071396     1     6     6     5
 0.0072822533     1     6     6    11
 -0.1751081117     1     6     8     2
 -0.0120789636     1     6     8     4
 0.0086877414     1     6     8    10
 0.0603325944     1     6     9     2
 0.0041617444     1     6     9     4
 -0.0029933163     1     6     9    10
 0.0009079712     1     6    10     8
 -0.0003128368     1     6    10     9
 -0.0021993914     1     6    11    12
 -0.0040412670     1     6    11    13
 -0.1016897403     1     6    12     1
 0.0057091108     1     6    12     3
 -0.0032234083     1     6    12     5
 0.0001610494     1     6    12    11
 -0.1868495920     1     6    13     1
 0.0104901931     1     6    13     3
 -0.0059228447     1     6    13     5
 0.0002959199     1     6    13    11
 0.0001552164     1     7     2     8
 0.0004504969     1     7     2     9
 0.0072853137     1     7     3    12
 -0.0039649092     1     7     3    13
 -0.0008293856     1     7     4     8
 -0.0024071924     1     7     4     9
 -0.0038880517     1     7     5    12
 0.0021160066     1     7     5    13
 -0.6747804465     1     7     7     1
 0.0172620329     1     7     7     3
 -0.0146071396     1     7     7     5
 0.0072822533     1     7     7    11
 -0.0603325944     1     7     8     2
 -0.0041617444     1     7     8     4
 0.0029933163     1     7     8    10
 -0.1751081117     1     7     9     2
 -0.0120789636     1     7     9     4
 0.0086877414     1     7     9    10
 0.0003128368     1     7    10     8
 0.0009079712     1     7    10     9
 0.0040412670     1     7    11    12
 -0.0021993914     1     7    11    13
 0.1868495920     1     7    12     1
 -0.0104901931     1     7    12     3
 0.0059228447     1     7    12     5
 -0.0002959199     1     7    12    11
 -0.1016897403     1     7    13     1
 0.0057091108     1     7    13     3
 -0.0032234083     1     7    13     5
 0.0001610494     1     7    13    11
 -0.0004504969     1     8     2     6
 -0.0001552164     1     8     2     7
 -0.0000788670     1     8     2    12
 -0.0004690084     1     8     2    13
 0.0024071924     1     8     4     6
 0.0008293856     1     8     4     7
 0.0012551832     1     8     4    12
 0.0074643627     1     8     4    13
 -0.1755769524     1     8     6     2
 -0.0102043165     1     8     6     4
 0.0075513680     1     8     6    10
 -0.0604941310     1     8     7     2
 -0.0035158445     1     8     7     4
 0.0026017848     1     8     7    10
 -0.6043986722     1     8     8     1
 0.0135300987     1     8     8     3
 -0.0086554107     1     8     8     5
 0.0011363996     1     8     8    11
 -0.0009079712     1     8    10     6
 -0.0003128368     1     8    10     7
 -0.0004375345     1     8    10    12
 -0.0026019442     1     8    10    13
 -0.0209374443     1     8    12     2
 -0.0017630706     1     8    12     4
 0.0012679660     1     8    12    10
 -0.1245114504     1     8    13     2
 -0.0104846835     1     8    13     4
 0.0075403800     1     8    13    10
 0.0001552164     1     9     2     6
 -0.0004504969     1     9     2     7
 0.0004690084     1     9     2    12
 -0.0000788670     1     9     2    13
 -0.0008293856     1     9     4     6
 0.0024071924     1     9     4     7
 -0.0074643627     1     9     4    12
 0.0012551832     1     9     4    13
 0.0604941310     1     9     6     2
 0.0035158445     1     9     6     4
 -0.0026017848     1     9     6    10
 -0.1755769524     1     9     7     2
 -0.0102043165     1     9     7     4
 0.0075513680     1     9     7    10
 -0.6043986722     1     9     9     1
 0.0135300987     1     9     9     3
 -0.0086554107     1     9     9     5
 0.0011363996     1     9     9    11
 0.0003128368     1     9    10     6
 -0.0009079712     1     9    10     7
 0.0026019442     1     9    10    12
 -0.0004375345     1     9    10    13
 0.1245114504     1     9    12     2
 0.0104846835     1     9    12     4
 -0.0075403800     1     9    12    10
 -0.0209374443     1     9    13     2
 -0.0017630706     1     9    13     4
 0.0012679660     1     9    13    10
 -0.0006718612     1    10     2     1
 -0.0000708360     1    10     2     3
 -0.0000535216     1    10     2     5
 0.0000385742     1    10     2    11
 -0.0928708682     1    10     3     2
 -0.0013902371     1    10     3     4
 0.1191223472     1    10     4     1
 0.0001727517     1    10     4     3
 -0.0015280821     1    10     4     5
 0.0002508823     1    10     4    11
 -0.0058327381     1    10     5     2
 -0.0047142630     1    10     5     4
 -0.0075513680     1    10     6     8
 0.0026017848     1    10     6     9
 -0.0026017848     1    10     7     8
 -0.0075513680     1    10     7     9
 -0.0086877414     1    10     8     6
 -0.0029933163     1    10     8     7
 -0.0017133551     1    10     8    12
 -0.0101890337     1    10     8    13
 0.0029933163     1    10     9     6
 -0.0086877414     1    10     9     7
 0.0101890337     1    10     9    12
 -0.0017133551     1    10     9    13
 -0.4014259500     1    10    10     1
 0.0004983079     1    10    10     3
 -0.0008609227     1    10    10     5
 0.0001395868     1    10    10    11
 -0.0494437085     1    10    11     2
 0.0043017123     1    10    11     4
 -0.0012679660     1    10    12     8
 0.0075403800     1    10    12     9
 -0.0075403800     1    10    13     8
 -0.0012679660     1    10    13     9
 -0.0112048238     1    11     2     2
 -0.0003778980     1    11     2     4
 -0.0000385742     1    11     2    10
 0.0931789164     1    11     3     1
 -0.0154770786     1    11     3     3
 -0.0005050639     1    11     3     5
 0.0205211875     1    11     4     2
 0.0063712917     1    11     4     4
 -0.0002508823     1    11     4    10
 0.1485866778     1    11     5     1
 -0.0115454498     1    11     5     3
 0.0096284177     1    11     5     5
 -0.0072822533     1    11     6     6
 -0.0023685096     1    11     6    12
 -0.0043520128     1    11     6    13
 -0.0072822533     1    11     7     7
 0.0043520128     1    11     7    12
 -0.0023685096     1    11     7    13
 -0.0011363996     1    11     8     8
 -0.0011363996     1    11     9     9
 -0.0494857532     1    11    10     2
 0.0040823955     1    11    10     4
 -0.0001395868     1    11    10    10
 -0.4839744625     1    11    11     1
 0.0064109210     1    11    11     3
 -0.0036797998     1    11    11     5
 -0.0001610494     1    11    12     6
 0.0002959199     1    11    12     7
 -0.0007705859     1    11    12    12
 -0.0002959199     1    11    13     6
 -0.0001610494     1    11    13     7
 -0.0007705859     1    11    13    13
 0.0000788670     1    12     2     8
 -0.0004690084     1    12     2     9
 0.0039649092     1    12     3     6
 -0.0072853137     1    12     3     7
 -0.0012551832     1    12     4     8
 0.0074643627     1    12     4     9
 -0.0021160066     1    12     5     6
 0.0038880517     1    12     5     7
 -0.1016897403     1    12     6     1
 0.0098291729     1    12     6     3
 -0.0054246183     1    12     6     5
 0.0023685096     1    12     6    11
 0.1868495920     1    12     7     1
 -0.0180605924     1    12     7     3
 0.0099674531     1    12     7     5
 -0.0043520128     1    12     7    11
 -0.0208603544     1    12     8     2
 -0.0030934232     1    12     8     4
 0.0017133551     1    12     8    10
 0.1240530090     1    12     9     2
 0.0183960660     1    12     9     4
 -0.0101890337     1    12     9    10
 0.0004375345     1    12    10     8
 -0.0026019442     1    12    10     9
 0.0021993914     1    12    11     6
 -0.0040412670     1    12    11     7
 -0.5711395039     1    12    12     1
 0.0139212304     1    12    12     3
 -0.0082644452     1    12    12     5
 0.0007705859     1    12    12    11
 0.0004690084     1    13     2     8
 0.0000788670     1    13     2     9
 0.0072853137     1    13     3     6
 0.0039649092     1    13     3     7
 -0.0074643627     1    13     4     8
 -0.0012551832     1    13     4     9
 -0.0038880517     1    13     5     6
 -0.0021160066     1    13     5     7
 -0.1868495920     1    13     6     1
 0.0180605924     1    13     6     3
 -0.0099674531     1    13     6     5
 0.0043520128     1    13     6    11
 -0.1016897403     1    13     7     1
 0.0098291729     1    13     7     3
 -0.0054246183     1    13     7     5
 0.0023685096     1    13     7    11
 -0.1240530090     1    13     8     2
 -0.0183960660     1    13     8     4
 0.0101890337     1    13     8    10
 -0.0208603544     1    13     9     2
 -0.0030934232     1    13     9     4
 0.0017133551     1    13     9    10
 0.0026019442     1    13    10     8
 0.0004375345     1    13    10     9
 0.0040412670     1    13    11     6
 0.0021993914     1    13    11     7
 -0.5711395039     1    13    13     1
 0.0139212304     1    13    13     3
 -0.0082644452     1    13    13     5
 0.0007705859     1    13    13    11
 -0.4837805018     2     1     1     2
 -0.0076654026     2     1     1     4
 -0.0006718612     2     1     1    10
 -0.0103521210     2     1     3     2
 -0.1430794584     2     1     3     4
 0.0927477518     2     1     3    10
 -0.1427372770     2     1     4     3
 0.2338393030     2     1     4     5
 -0.0208866187     2     1     4    11
 -0.0166606457     2     1     5     2
 0.2333127911     2     1     5     4
 0.0057797886     2     1     5    10
 0.1751081117     2     1     6     8
 -0.0603325944     2     1     6     9
 0.0603325944     2     1     7     8
 0.1751081117     2     1     7     9
 0.1755769524     2     1     8     6
 0.0604941310     2     1     8     7
 0.0209374443     2     1     8    12
 0.1245114504     2     1     8    13
 -0.0604941310     2     1     9     6
 0.1755769524     2     1     9     7
 -0.1245114504     2     1     9    12
 0.0209374443     2     1     9    13
 0.0928708682     2     1    10     3
 0.0058327381     2     1    10     5
 0.0494437085     2     1    10    11
 0.0112048238     2     1    11     2
 -0.0205211875     2     1    11     4
 0.0494857532     2     1    11    10
 0.0208603544     2     1    12     8
 -0.1240530090     2     1    12     9
 0.1240530090     2     1    13     8
 0.0208603544     2     1    13     9
 0.4837805018     2     2     1     1
 0.0103521210     2     2     1     3
 0.0166606457     2     2     1     5
 -0.0112048238     2     2     1    11
 0.0103521210     2     2     3     1
 0.8038989847     2     2     3     3
 0.1023190041     2     2     3     5
 -0.0936449158     2     2     3    11
 0.6358177595     2     2     4     4
 -0.1191044427     2     2     4    10
 0.0166606457     2     2     5     1
 0.1023190041     2     2     5     3
 0.6774076553     2     2     5     5
 -0.1493966913     2     2     5    11
 0.6753673475     2     2     6     6
 0.1019819243     2     2     6    12
 0.1873864647     2     2     6    13
 0.6753673475     2     2     7     7
 -0.1873864647     2     2     7    12
 0.1019819243     2     2     7    13
 0.6040645109     2     2     8     8
 0.6040645109     2     2     9     9
 -0.1191044427     2     2    10     4
 0.4014081408     2     2    10    10
 -0.0112048238     2     2    11     1
 -0.0936449158     2     2    11     3
 -0.1493966913     2     2    11     5
 0.4845440392     2     2    11    11
 0.1019819243     2     2    12     6
 -0.1873864647     2     2    12     7
 0.5717617938     2     2    12    12
 0.1873864647     2     2    13     6
 0.1019819243     2     2    13     7
 0.5717617938     2     2    13    13
 -0.0103521210     2     3     1     2
 -0.0003307571     2     3     1     4
 -0.0000708360     2     3     1    10
 -0.8038989847     2     3     3     2
 -0.0128488964     2     3     3     4
 -0.0011330699     2     3     3    10
 0.1427372770     2     3     4     1
 -0.0173426711     2     3     4     5
 0.0051604991     2     3     4    11
 -0.1023190041     2     3     5     2
 -0.0230377905     2     3     5     4
 0.0009261759     2     3     5    10
 -0.0209640992     2     3     6     8
 0.0072230720     2     3     6     9
 -0.0072230720     2     3     7     8
 -0.0209640992     2     3     7     9
 -0.0142246790     2     3     8     6
 -0.0049010397     2     3     8     7
 -0.0027241383     2     3     8    12
 -0.0161999911     2     3     8    13
 0.0049010397     2     3     9     6
 -0.0142246790     2     3     9     7
 0.0161999911     2     3     9    12
 -0.0027241383     2     3     9    13
 -0.0928708682     2     3    10     1
 -0.0011744014     2     3    10     5
 -0.0021046167     2     3    10    11
 0.0936449158     2     3    11     2
 0.0086902529     2     3    11     4
 -0.0036038951     2     3    11    10
 -0.0024522777     2     3    12     8
 0.0145832819     2     3    12     9
 -0.0145832819     2     3    13     8
 -0.0024522777     2     3    13     9
 0.0076654026     2     4     1     1
 0.0003307571     2     4     1     3
 0.0005282210     2     4     1     5
 -0.0003778980     2     4     1    11
 0.1430794584     2     4     3     1
 0.0128488964     2     4     3     3
 0.0057264585     2     4     3     5
 -0.0038453727     2     4     3    11
 -0.6358177595     2     4     4     2
 0.0009364992     2     4     4    10
 -0.2333127911     2     4     5     1
 0.0230377905     2     4     5     3
 0.0205764613     2     4     5     5
 -0.0184389001     2     4     5    11
 0.0194402478     2     4     6     6
 0.0089875007     2     4     6    12
 0.0165140636     2     4     6    13
 0.0194402478     2     4     7     7
 -0.0165140636     2     4     7    12
 0.0089875007     2     4     7    13
 0.0174512719     2     4     8     8
 0.0174512719     2     4     9     9
 0.1191044427     2     4    10     2
 0.0009383997     2     4    10    10
 0.0205211875     2     4    11     1
 -0.0086902529     2     4    11     3
 -0.0075373858     2     4    11     5
 0.0073423319     2     4    11    11
 0.0061935759     2     4    12     6
 -0.0113803725     2     4    12     7
 0.0155628882     2     4    12    12
 0.0113803725     2     4    13     6
 0.0061935759     2     4    13     7
 0.0155628882     2     4    13    13
 -0.0166606457     2     5     1     2
 -0.0005282210     2     5     1     4
 -0.0000535216     2     5     1    10
 -0.1023190041     2     5     3     2
 -0.0057264585     2     5     3     4
 0.0019071233     2     5     3    10
 -0.2338393030     2     5     4     1
 0.0173426711     2     5     4     3
 -0.0106768996     2     5     4    11
 -0.6774076553     2     5     5     2
 -0.0205764613     2     5     5     4
 0.0062179356     2     5     5    10
 0.0000256008     2     5     6     8
 -0.0000088206     2     5     6     9
 0.0000088206     2     5     7     8
 0.0000256008     2     5     7     9
 0.0017097361     2     5     8     6
 0.0005890808     2     5     8     7
 0.0012566247     2     5     8    12
 0.0074729352     2     5     8    13
 -0.0005890808     2     5     9     6
 0.0017097361     2     5     9     7
 -0.0074729352     2     5     9    12
 0.0012566247     2     5     9    13
 -0.0058327381     2     5    10     1
 0.0011744014     2     5    10     3
 -0.0047986491     2     5    10    11
 0.1493966913     2     5    11     2
 0.0075373858     2     5    11     4
 -0.0081127860     2     5    11    10
 0.0002686098     2     5    12     8
 -0.0015973773     2     5    12     9
 0.0015973773     2     5    13     8
 0.0002686098     2     5    13     9
 -0.0004504969     2     6     1     8
 0.0001552164     2     6     1     9
 -0.0055424616     2     6     3     8
 0.0019096265     2     6     3     9
 0.0025496978     2     6     4    12
 0.0046849366     2     6     4    13
 -0.0013025212     2     6     5     8
 0.0004487769     2     6     5     9
 -0.6753673475     2     6     6     2
 -0.0194402478     2     6     6     4
 0.0080624332     2     6     6    10
 -0.1755769524     2     6     8     1
 0.0142246790     2     6     8     3
 -0.0017097361     2     6     8     5
 -0.0028842638     2     6     8    11
 0.0604941310     2     6     9     1
 -0.0049010397     2     6     9     3
 0.0005890808     2     6     9     5
 0.0009937581     2     6     9    11
 -0.0008483240     2     6    10    12
 -0.0015587512     2     6    10    13
 -0.0012031646     2     6    11     8
 0.0004145441     2     6    11     9
 -0.1019819243     2     6    12     2
 -0.0061935759     2     6    12     4
 0.0035815010     2     6    12    10
 -0.1873864647     2     6    13     2
 -0.0113803725     2     6    13     4
 0.0065808212     2     6    13    10
 -0.0001552164     2     7     1     8
 -0.0004504969     2     7     1     9
 -0.0019096265     2     7     3     8
 -0.0055424616     2     7     3     9
 -0.0046849366     2     7     4    12
 0.0025496978     2     7     4    13
 -0.0004487769     2     7     5     8
 -0.0013025212     2     7     5     9
 -0.6753673475     2     7     7     2
 -0.0194402478     2     7     7     4
 0.0080624332     2     7     7    10
 -0.0604941310     2     7     8     1
 0.0049010397     2     7     8     3
 -0.0005890808     2     7     8     5
 -0.0009937581     2     7     8    11
 -0.1755769524     2     7     9     1
 0.0142246790     2     7     9     3
 -0.0017097361     2     7     9     5
 -0.0028842638     2     7     9    11
 0.0015587512     2     7    10    12
 -0.0008483240     2     7    10    13
 -0.0004145441     2     7    11     8
 -0.0012031646     2     7    11     9
 0.1873864647     2     7    12     2
 0.0113803725     2     7    12     4
 -0.0065808212     2     7    12    10
 -0.1019819243     2     7    13     2
 -0.0061935759     2     7    13     4
 0.0035815010     2     7    13    10
 0.0004504969     2     8     1     6
 0.0001552164     2     8     1     7
 0.0000788670     2     8     1    12
 0.0004690084     2     8     1    13
 0.0055424616     2     8     3     6
 0.0019096265     2     8     3     7
 -0.0002542236     2     8     3    12
 -0.0015118251     2     8     3    13
 0.0013025212     2     8     5     6
 0.0004487769     2     8     5     7
 0.0009610721     2     8     5    12
 0.0057153333     2     8     5    13
 -0.1751081117     2     8     6     1
 0.0209640992     2     8     6     3
 -0.0000256008     2     8     6     5
 -0.0017811325     2     8     6    11
 -0.0603325944     2     8     7     1
 0.0072230720     2     8     7     3
 -0.0000088206     2     8     7     5
 -0.0006136800     2     8     7    11
 -0.6040645109     2     8     8     2
 -0.0174512719     2     8     8     4
 0.0088214943     2     8     8    10
 0.0012031646     2     8    11     6
 0.0004145441     2     8    11     7
 -0.0004816317     2     8    11    12
 -0.0028641824     2     8    11    13
 -0.0208603544     2     8    12     1
 0.0024522777     2     8    12     3
 -0.0002686098     2     8    12     5
 -0.0004808623     2     8    12    11
 -0.1240530090     2     8    13     1
 0.0145832819     2     8    13     3
 -0.0015973773     2     8    13     5
 -0.0028596073     2     8    13    11
 -0.0001552164     2     9     1     6
 0.0004504969     2     9     1     7
 -0.0004690084     2     9     1    12
 0.0000788670     2     9     1    13
 -0.0019096265     2     9     3     6
 0.0055424616     2     9     3     7
 0.0015118251     2     9     3    12
 -0.0002542236     2     9     3    13
 -0.0004487769     2     9     5     6
 0.0013025212     2     9     5     7
 -0.0057153333     2     9     5    12
 0.0009610721     2     9     5    13
 0.0603325944     2     9     6     1
 -0.0072230720     2     9     6     3
 0.0000088206     2     9     6     5
 0.0006136800     2     9     6    11
 -0.1751081117     2     9     7     1
 0.0209640992     2     9     7     3
 -0.0000256008     2     9     7     5
 -0.0017811325     2     9     7    11
 -0.6040645109     2     9     9     2
 -0.0174512719     2     9     9     4
 0.0088214943     2     9     9    10
 -0.0004145441     2     9    11     6
 0.0012031646     2     9    11     7
 0.0028641824     2     9    11    12
 -0.0004816317     2     9    11    13
 0.1240530090     2     9    12     1
 -0.0145832819     2     9    12     3
 0.0015973773     2     9    12     5
 0.0028596073     2     9    12    11
 -0.0208603544     2     9    13     1
 0.0024522777     2     9    13     3
 -0.0002686098     2     9    13     5
 -0.0004808623     2     9    13    11
 0.0006718612     2    10     1     1
 0.0000708360     2    10     1     3
 0.0000535216     2    10     1     5
 -0.0000385742     2    10     1    11
 -0.0927477518     2    10     3     1
 0.0011330699     2    10     3     3
 -0.0019071233     2    10     3     5
 0.0015617153     2    10     3    11
 0.1191044427     2    10     4     2
 -0.0009364992     2    10     4     4
 -0.0057797886     2    10     5     1
 -0.0009261759     2    10     5     3
 -0.0062179356     2    10     5     5
 0.0035847120     2    10     5    11
 -0.0080624332     2    10     6     6
 -0.0045080155     2    10     6    12
 -0.0082832434     2    10     6    13
 -0.0080624332     2    10     7     7
 0.0082832434     2    10     7    12
 -0.0045080155     2    10     7    13
 -0.0088214943     2    10     8     8
 -0.0088214943     2    10     9     9
 -0.4014081408     2    10    10     2
 -0.0009383997     2    10    10     4
 -0.0494857532     2    10    11     1
 0.0036038951     2    10    11     3
 0.0081127860     2    10    11     5
 -0.0052795956     2    10    11    11
 -0.0035815010     2    10    12     6
 0.0065808212     2    10    12     7
 -0.0085267449     2    10    12    12
 -0.0065808212     2    10    13     6
 -0.0035815010     2    10    13     7
 -0.0085267449     2    10    13    13
 0.0112048238     2    11     1     2
 0.0003778980     2    11     1     4
 0.0000385742     2    11     1    10
 0.0936449158     2    11     3     2
 0.0038453727     2    11     3     4
 -0.0015617153     2    11     3    10
 0.0208866187     2    11     4     1
 -0.0051604991     2    11     4     3
 0.0106768996     2    11     4     5
 0.1493966913     2    11     5     2
 0.0184389001     2    11     5     4
 -0.0035847120     2    11     5    10
 0.0017811325     2    11     6     8
 -0.0006136800     2    11     6     9
 0.0006136800     2    11     7     8
 0.0017811325     2    11     7     9
 0.0028842638     2    11     8     6
 0.0009937581     2    11     8     7
 0.0000022373     2    11     8    12
 0.0000133051     2    11     8    13
 -0.0009937581     2    11     9     6
 0.0028842638     2    11     9     7
 -0.0000133051     2    11     9    12
 0.0000022373     2    11     9    13
 -0.0494437085     2    11    10     1
 0.0021046167     2    11    10     3
 0.0047986491     2    11    10     5
 -0.4845440392     2    11    11     2
 -0.0073423319     2    11    11     4
 0.0052795956     2    11    11    10
 0.0004808623     2    11    12     8
 -0.0028596073     2    11    12     9
 0.0028596073     2    11    13     8
 0.0004808623     2    11    13     9
 -0.0000788670     2    12     1     8
 0.0004690084     2    12     1     9
 0.0002542236     2    12     3     8
 -0.0015118251     2    12     3     9
 -0.0025496978     2    12     4     6