&FCI NORB= 19,NELEC= 14,MS2=0,
 ORBSYM=1,1,1,1,1,1,1,1,1,1,1,1,1,1,1,1,1,1,1
 ISYM=1,
&END
 0.4837628047     1     1     2     2
 0.0079180796     1     1     2     4
 0.0011179305     1     1     2    10
 0.0184722556     1     1     2    17
 0.0039024275     1     1     2    18
 0.8037785769     1     1     3     3
 0.1004597578     1     1     3     5
 -0.0962535431     1     1     3    11
 0.1149532171     1     1     3    14
 0.0079180796     1     1     4     2
 0.6370721494     1     1     4     4
 -0.1220263340     1     1     4    10
 0.1007567353     1     1     4    17
 -0.1228965144     1     1     4    18
 0.1004597578     1     1     5     3
 0.6769763971     1     1     5     5
 -0.1539379092     1     1     5    11
 -0.1448025152     1     1     5    14
 0.6734896146     1     1     6     6
 -0.0648644028     1     1     6    12
 0.2126900939     1     1     6    13
 0.6734896146     1     1     7     7
 0.2126900939     1     1     7    12
 0.0648644028     1     1     7    13
 0.6046556208     1     1     8     8
 -0.1208196902     1     1     8    15
 -0.2175473711     1     1     8    16
 0.6046556208     1     1     9     9
 -0.2175473711     1     1     9    15
 0.1208196902     1     1     9    16
 0.0011179305     1     1    10     2
 -0.1220263340     1     1    10     4
 0.4012509744     1     1    10    10
 0.0915298516     1     1    10    17
 0.1464353157     1     1    10    18
 -0.0962535431     1     1    11     3
 -0.1539379092     1     1    11     5
 0.4837242637     1     1    11    11
 -0.0121931037     1     1    11    14
 -0.0648644028     1     1    12     6
 0.2126900939     1     1    12     7
 0.5709304300     1     1    12    12
 0.2126900939     1     1    13     6
 0.0648644028     1     1    13     7
 0.5709304300     1     1    13    13
 0.1149532171     1     1    14     3
 -0.1448025152     1     1    14     5
 -0.0121931037     1     1    14    11
 0.5514674857     1     1    14    14
 -0.1208196902     1     1    15     8
 -0.2175473711     1     1    15     9
 0.6123975631     1     1    15    15
 -0.2175473711     1     1    16     8
 0.1208196902     1     1    16     9
 0.6123975631     1     1    16    16
 0.0184722556     1     1    17     2
 0.1007567353     1     1    17     4
 0.0915298516     1     1    17    10
 0.7439142292     1     1    17    17
 0.1154194020     1     1    17    18
 0.0039024275     1     1    18     2
 -0.1228965144     1     1    18     4
 0.1464353157     1     1    18    10
 0.1154194020     1     1    18    17
 0.5697345380     1     1    18    18
 0.5988704813     1     1    19    19
 -0.4837628047     1     2     2     1
 -0.0104002766     1     2     2     3
 -0.0169336573     1     2     2     5
 0.0113140374     1     2     2    11
 0.0063730931     1     2     2    14
 -0.1415789789     1     2     3     4
 0.1066349588     1     2     3    10
 0.1267507175     1     2     3    17
 0.1562405501     1     2     3    18
 -0.0079180796     1     2     4     1
 -0.1419219344     1     2     4     3
 0.2364449772     1     2     4     5
 -0.0272548946     1     2     4    11
 -0.1573598228     1     2     4    14
 0.2370043010     1     2     5     4
 0.0034141580     1     2     5    10
 0.2252543719     1     2     5    17
 0.0202601396     1     2     5    18
 0.2210930788     1     2     6     8
 0.0281946938     1     2     6     9
 -0.1087132390     1     2     6    15
 -0.1479197643     1     2     6    16
 -0.0281946938     1     2     7     8
 0.2210930788     1     2     7     9
 -0.1479197643     1     2     7    15
 0.1087132390     1     2     7    16
 0.2206155887     1     2     8     6
 -0.0281338023     1     2     8     7
 -0.0519350623     1     2     8    12
 0.1154121659     1     2     8    13
 0.0281338023     1     2     9     6
 0.2206155887     1     2     9     7
 0.1154121659     1     2     9    12
 0.0519350623     1     2     9    13
 -0.0011179305     1     2    10     1
 0.1065901727     1     2    10     3
 0.0033470134     1     2    10     5
 0.0494244874     1     2    10    11
 0.0889597954     1     2    10    14
 -0.0276446730     1     2    11     4
 0.0493784556     1     2    11    10
 -0.1126167381     1     2    11    17
 -0.0389940357     1     2    11    18
 -0.0521337078     1     2    12     8
 0.1158536038     1     2    12     9
 -0.1331467223     1     2    12    15
 0.1784618503     1     2    12    16
 0.1158536038     1     2    13     8
 0.0521337078     1     2    13     9
 -0.1784618503     1     2    13    15
 -0.1331467223     1     2    13    16
 -0.1575587533     1     2    14     4
 0.0889370172     1     2    14    10
 -0.1495466425     1     2    14    17
 0.1219793644     1     2    14    18
 -0.1083465738     1     2    15     6
 -0.1474208643     1     2    15     7
 -0.1327741402     1     2    15    12
 -0.1779624637     1     2    15    13
 -0.1474208643     1     2    16     6
 0.1083465738     1     2    16     7
 0.1779624637     1     2    16    12
 -0.1327741402     1     2    16    13
 -0.0184722556     1     2    17     1
 0.1259577847     1     2    17     3
 0.2239777880     1     2    17     5
 -0.1117287490     1     2    17    11
 -0.1490961504     1     2    17    14
 -0.0039024275     1     2    18     1
 0.1560767958     1     2    18     3
 0.0200034301     1     2    18     5
 -0.0388165440     1     2    18    11
 0.1220685050     1     2    18    14
 0.0104002766     1     3     2     2
 0.0003429555     1     3     2     4
 0.0000447861     1     3     2    10
 0.0007929328     1     3     2    17
 0.0001637543     1     3     2    18
 -0.8037785769     1     3     3     1
 -0.0222232814     1     3     3     5
 0.0156395867     1     3     3    11
 0.0150160732     1     3     3    14
 0.1419219344     1     3     4     2
 -0.0095435485     1     3     4     4
 -0.0001760908     1     3     4    10
 -0.0148497982     1     3     4    17
 -0.0006988339     1     3     4    18
 -0.1004597578     1     3     5     1
 -0.0246807093     1     3     5     5
 0.0117157876     1     3     5    11
 0.0178379350     1     3     5    14
 -0.0170491715     1     3     6     6
 0.0061451661     1     3     6    12
 -0.0201499728     1     3     6    13
 -0.0170491715     1     3     7     7
 -0.0201499728     1     3     7    12
 -0.0061451661     1     3     7    13
 -0.0138476985     1     3     8     8
 0.0087455924     1     3     8    15
 0.0157472730     1     3     8    16
 -0.0138476985     1     3     9     9
 0.0157472730     1     3     9    15
 -0.0087455924     1     3     9    16
 -0.1065901727     1     3    10     2
 -0.0020300161     1     3    10     4
 -0.0002708116     1     3    10    10
 0.0004849997     1     3    10    17
 0.0011849376     1     3    10    18
 0.0962535431     1     3    11     1
 0.0111599975     1     3    11     5
 -0.0064992238     1     3    11    11
 -0.0114759795     1     3    11    14
 0.0037342514     1     3    12     6
 -0.0122445941     1     3    12     7
 -0.0141637793     1     3    12    12
 -0.0122445941     1     3    13     6
 -0.0037342514     1     3    13     7
 -0.0141637793     1     3    13    13
 -0.1149532171     1     3    14     1
 0.0066913601     1     3    14     5
 -0.0039651552     1     3    14    11
 -0.0047938124     1     3    14    14
 0.0068564783     1     3    15     8
 0.0123457428     1     3    15     9
 -0.0191624230     1     3    15    15
 0.0123457428     1     3    16     8
 -0.0068564783     1     3    16     9
 -0.0191624230     1     3    16    16
 -0.1259577847     1     3    17     2
 -0.0177917978     1     3    17     4
 0.0043709989     1     3    17    10
 -0.0212319568     1     3    17    17
 0.0040643604     1     3    17    18
 -0.1560767958     1     3    18     2
 -0.0042646266     1     3    18     4
 0.0014620006     1     3    18    10
 -0.0031122046     1     3    18    17
 0.0022902720     1     3    18    18
 0.0008955144     1     3    19    19
 -0.0079180796     1     4     2     1
 -0.0003429555     1     4     2     3
 -0.0005593238     1     4     2     5
 0.0003897784     1     4     2    11
 0.0001989305     1     4     2    14
 0.1415789789     1     4     3     2
 0.0018539253     1     4     3    10
 0.0029419996     1     4     3    17
 0.0035657927     1     4     3    18
 -0.6370721494     1     4     4     1
 0.0095435485     1     4     4     3
 0.0022482645     1     4     4     5
 -0.0069230623     1     4     4    11
 -0.0001263652     1     4     4    14
 -0.2370043010     1     4     5     2
 0.0047128101     1     4     5    10
 0.0250842609     1     4     5    17
 0.0109351782     1     4     5    18
 0.0120782490     1     4     6     8
 0.0015402677     1     4     6     9
 -0.0108798767     1     4     6    15
 -0.0148036138     1     4     6    16
 -0.0015402677     1     4     7     8
 0.0120782490     1     4     7     9
 -0.0148036138     1     4     7    15
 0.0108798767     1     4     7    16
 0.0153480077     1     4     8     6
 -0.0019572407     1     4     8     7
 -0.0079702148     1     4     8    12
 0.0177117291     1     4     8    13
 0.0019572407     1     4     9     6
 0.0153480077     1     4     9     7
 0.0177117291     1     4     9    12
 0.0079702148     1     4     9    13
 0.1220263340     1     4    10     1
 0.0020300161     1     4    10     3
 0.0029699766     1     4    10     5
 -0.0041508729     1     4    10    11
 -0.0024434728     1     4    10    14
 0.0276446730     1     4    11     2
 -0.0045411587     1     4    11    10
 -0.0073010641     1     4    11    17
 -0.0049567424     1     4    11    18
 -0.0044258388     1     4    12     8
 0.0098352756     1     4    12     9
 -0.0077372675     1     4    12    15
 0.0103705675     1     4    12    16
 0.0098352756     1     4    13     8
 0.0044258388     1     4    13     9
 -0.0103705675     1     4    13    15
 -0.0077372675     1     4    13    16
 0.1575587533     1     4    14     2
 -0.0036289353     1     4    14    10
 -0.0093386064     1     4    14    17
 -0.0057663650     1     4    14    18
 -0.0083082919     1     4    15     6
 -0.0113046083     1     4    15     7
 -0.0089680552     1     4    15    12
 -0.0120202412     1     4    15    13
 -0.0113046083     1     4    16     6
 0.0083082919     1     4    16     7
 0.0120202412     1     4    16    12
 -0.0089680552     1     4    16    13
 -0.1007567353     1     4    17     1
 0.0177917978     1     4    17     3
 0.0138021375     1     4    17     5
 -0.0135840195     1     4    17    11
 -0.0000978044     1     4    17    14
 0.1228965144     1     4    18     1
 0.0042646266     1     4    18     3
 0.0047532347     1     4    18     5
 -0.0036945870     1     4    18    11
 -0.0018327431     1     4    18    14
 0.0169336573     1     5     2     2
 0.0005593238     1     5     2     4
 0.0000671446     1     5     2    10
 0.0012765839     1     5     2    17
 0.0002567095     1     5     2    18
 -0.1004597578     1     5     3     1
 0.0222232814     1     5     3     3
 0.0005557901     1     5     3    11
 0.0111465749     1     5     3    14
 -0.2364449772     1     5     4     2
 -0.0022482645     1     5     4     4
 0.0017428335     1     5     4    10
 0.0112821234     1     5     4    17
 0.0061819435     1     5     4    18
 -0.6769763971     1     5     5     1
 0.0246807093     1     5     5     3
 -0.0098399861     1     5     5    11
 0.0117525326     1     5     5    14
 0.0147243645     1     5     6     6
 -0.0032929276     1     5     6    12
 0.0107974953     1     5     6    13
 0.0147243645     1     5     7     7
 0.0107974953     1     5     7    12
 0.0032929276     1     5     7    13
 0.0091802373     1     5     8     8
 -0.0058676543     1     5     8    15
 -0.0105652708     1     5     8    16
 0.0091802373     1     5     9     9
 -0.0105652708     1     5     9    15
 0.0058676543     1     5     9    16
 -0.0033470134     1     5    10     2
 -0.0029699766     1     5    10     4
 0.0008344394     1     5    10    10
 0.0051452691     1     5    10    17
 0.0042846959     1     5    10    18
 0.1539379092     1     5    11     1
 -0.0111599975     1     5    11     3
 0.0035968169     1     5    11    11
 -0.0119221833     1     5    11    14
 -0.0019841873     1     5    12     6
 0.0065061414     1     5    12     7
 0.0082918433     1     5    12    12
 0.0065061414     1     5    13     6
 0.0019841873     1     5    13     7
 0.0082918433     1     5    13    13
 0.1448025152     1     5    14     1
 -0.0066913601     1     5    14     3
 0.0011719130     1     5    14    11
 -0.0013511821     1     5    14    14
 -0.0036897504     1     5    15     8
 -0.0066437473     1     5    15     9
 0.0098825020     1     5    15    15
 -0.0066437473     1     5    16     8
 0.0036897504     1     5    16     9
 0.0098825020     1     5    16    16
 -0.2239777880     1     5    17     2
 -0.0138021375     1     5    17     4
 0.0130665068     1     5    17    10
 0.0165998268     1     5    17    17
 0.0206689999     1     5    17    18
 -0.0200034301     1     5    18     2
 -0.0047532347     1     5    18     4
 0.0048397264     1     5    18    10
 0.0056461829     1     5    18    17
 0.0090984516     1     5    18    18
 0.0076014595     1     5    19    19
 0.0004774901     1     6     2     8
 0.0000608915     1     6     2     9
 -0.0003666652     1     6     2    15
 -0.0004989000     1     6     2    16
 0.0024109147     1     6     3    12
 -0.0079053787     1     6     3    13
 -0.0032697587     1     6     4     8
 -0.0004169730     1     6     4     9
 -0.0025715848     1     6     4    15
 -0.0034990055     1     6     4    16
 -0.0013087403     1     6     5    12
 0.0042913539     1     6     5    13
 -0.6734896146     1     6     6     1
 0.0170491715     1     6     6     3
 -0.0147243645     1     6     6     5
 0.0076071570     1     6     6    11
 0.0120822827     1     6     6    14
 0.0066466991     1     6     6    19
 0.0063341692     1     6     7    19
 -0.2206155887     1     6     8     2
 -0.0153480077     1     6     8     4
 0.0097843163     1     6     8    10
 0.0102727978     1     6     8    17
 0.0118900969     1     6     8    18
 -0.0281338023     1     6     9     2
 -0.0019572407     1     6     9     4
 0.0012477361     1     6     9    10
 0.0013100292     1     6     9    17
 0.0015162738     1     6     9    18
 0.0007704450     1     6    10     8
 0.0000982503     1     6    10     9
 0.0005154667     1     6    10    15
 0.0007013653     1     6    10    16
 0.0014034773     1     6    11    12
 -0.0046019957     1     6    11    13
 0.0648644028     1     6    12     1
 -0.0037342514     1     6    12     3
 0.0019841873     1     6    12     5
 -0.0001049964     1     6    12    11
 -0.0047868349     1     6    12    14
 0.0012937577     1     6    12    19
 -0.2126900939     1     6    13     1
 0.0122445941     1     6    13     3
 -0.0065061414     1     6    13     5
 0.0003442828     1     6    13    11
 0.0156960109     1     6    13    14
 0.0025767643     1     6    13    19
 -0.0013802756     1     6    14    12
 0.0045259177     1     6    14    13
 0.1083465738     1     6    15     2
 0.0083082919     1     6    15     4
 -0.0064048338     1     6    15    10
 -0.0016772957     1     6    15    17
 -0.0107506291     1     6    15    18
 0.1474208643     1     6    16     2
 0.0113046083     1     6    16     4
 -0.0087146839     1     6    16    10
 -0.0022821985     1     6    16    17
 -0.0146277541     1     6    16    18
 0.0009341549     1     6    17     8
 0.0001191273     1     6    17     9
 0.0022022648     1     6    17    15
 0.0029964933     1     6    17    16
 -0.0007071428     1     6    18     8
 -0.0000901777     1     6    18     9
 -0.0013707389     1     6    18    15
 -0.0018650845     1     6    18    16
 -0.0034522621     1     6    19    12
 -0.0068758361     1     6    19    13
 -0.0000608915     1     7     2     8
 0.0004774901     1     7     2     9
 -0.0004989000     1     7     2    15
 0.0003666652     1     7     2    16
 -0.0079053787     1     7     3    12
 -0.0024109147     1     7     3    13
 0.0004169730     1     7     4     8
 -0.0032697587     1     7     4     9
 -0.0034990055     1     7     4    15
 0.0025715848     1     7     4    16
 0.0042913539     1     7     5    12
 0.0013087403     1     7     5    13
 0.0063341692     1     7     6    19
 -0.6734896146     1     7     7     1
 0.0170491715     1     7     7     3
 -0.0147243645     1     7     7     5
 0.0076071570     1     7     7    11
 0.0120822827     1     7     7    14
 -0.0066466991     1     7     7    19
 0.0281338023     1     7     8     2
 0.0019572407     1     7     8     4
 -0.0012477361     1     7     8    10
 -0.0013100292     1     7     8    17
 -0.0015162738     1     7     8    18
 -0.2206155887     1     7     9     2
 -0.0153480077     1     7     9     4
 0.0097843163     1     7     9    10
 0.0102727978     1     7     9    17
 0.0118900969     1     7     9    18
 -0.0000982503     1     7    10     8
 0.0007704450     1     7    10     9
 0.0007013653     1     7    10    15
 -0.0005154667     1     7    10    16
 -0.0046019957     1     7    11    12
 -0.0014034773     1     7    11    13
 -0.2126900939     1     7    12     1
 0.0122445941     1     7    12     3
 -0.0065061414     1     7    12     5
 0.0003442828     1     7    12    11
 0.0156960109     1     7    12    14
 -0.0025767643     1     7    12    19
 -0.0648644028     1     7    13     1
 0.0037342514     1     7    13     3
 -0.0019841873     1     7    13     5
 0.0001049964     1     7    13    11
 0.0047868349     1     7    13    14
 0.0012937577     1     7    13    19
 0.0045259177     1     7    14    12
 0.0013802756     1     7    14    13
 0.1474208643     1     7    15     2
 0.0113046083     1     7    15     4
 -0.0087146839     1     7    15    10
 -0.0022821985     1     7    15    17
 -0.0146277541     1     7    15    18
 -0.1083465738     1     7    16     2
 -0.0083082919     1     7    16     4
 0.0064048338     1     7    16    10
 0.0016772957     1     7    16    17
 0.0107506291     1     7    16    18
 -0.0001191273     1     7    17     8
 0.0009341549     1     7    17     9
 0.0029964933     1     7    17    15
 -0.0022022648     1     7    17    16
 0.0000901777     1     7    18     8
 -0.0007071428     1     7    18     9
 -0.0018650845     1     7    18    15
 0.0013707389     1     7    18    16
 0.0068758361     1     7    19    12
 -0.0034522621     1     7    19    13
 -0.0004774901     1     8     2     6
 0.0000608915     1     8     2     7
 0.0001986455     1     8     2    12
 -0.0004414379     1     8     2    13
 0.0018891141     1     8     3    15
 0.0034015302     1     8     3    16
 0.0032697587     1     8     4     6
 -0.0004169730     1     8     4     7
 -0.0035443760     1     8     4    12
 0.0078764535     1     8     4    13
 -0.0021779039     1     8     5    15
 -0.0039215235     1     8     5    16
 -0.2210930788     1     8     6     2
 -0.0120782490     1     8     6     4
 0.0090138713     1     8     6    10
 0.0093386429     1     8     6    17
 0.0125972397     1     8     6    18
 0.0281946938     1     8     7     2
 0.0015402677     1     8     7     4
 -0.0011494858     1     8     7    10
 -0.0011909019     1     8     7    17
 -0.0016064515     1     8     7    18
 -0.6046556208     1     8     8     1
 0.0138476985     1     8     8     3
 -0.0091802373     1     8     8     5
 0.0011121599     1     8     8    11
 0.0097118663     1     8     8    14
 0.0028631751     1     8     8    19
 0.0046098369     1     8     9    19
 -0.0007704450     1     8    10     6
 0.0000982503     1     8    10     7
 0.0010994404     1     8    10    12
 -0.0024432202     1     8    10    13
 0.0002367093     1     8    11    15
 0.0004262176     1     8    11    16
 0.0521337078     1     8    12     2
 0.0044258388     1     8    12     4
 -0.0031958097     1     8    12    10
 -0.0005532996     1     8    12    17
 -0.0054828010     1     8    12    18
 -0.1158536038     1     8    13     2
 -0.0098352756     1     8    13     4
 0.0071018556     1     8    13    10
 0.0012295644     1     8    13    17
 0.0121840990     1     8    13    18
 -0.0005351645     1     8    14    15
 -0.0009636149     1     8    14    16
 0.1208196902     1     8    15     1
 -0.0068564783     1     8    15     3
 0.0036897504     1     8    15     5
 -0.0005803926     1     8    15    11
 -0.0069398003     1     8    15    14
 -0.0035259455     1     8    15    19
 0.2175473711     1     8    16     1
 -0.0123457428     1     8    16     3
 0.0066437473     1     8    16     5
 -0.0010450522     1     8    16    11
 -0.0124957722     1     8    16    14
 -0.0001723181     1     8    16    19
 -0.0009341549     1     8    17     6
 0.0001191273     1     8    17     7
 0.0014014194     1     8    17    12
 -0.0031142902     1     8    17    13
 0.0007071428     1     8    18     6
 -0.0000901777     1     8    18     7
 -0.0004721080     1     8    18    12
 0.0010491373     1     8    18    13
 0.0042259104     1     8    19    15
 0.0002065265     1     8    19    16
 -0.0000608915     1     9     2     6
 -0.0004774901     1     9     2     7
 -0.0004414379     1     9     2    12
 -0.0001986455     1     9     2    13
 0.0034015302     1     9     3    15
 -0.0018891141     1     9     3    16
 0.0004169730     1     9     4     6
 0.0032697587     1     9     4     7
 0.0078764535     1     9     4    12
 0.0035443760     1     9     4    13
 -0.0039215235     1     9     5    15
 0.0021779039     1     9     5    16
 -0.0281946938     1     9     6     2
 -0.0015402677     1     9     6     4
 0.0011494858     1     9     6    10
 0.0011909019     1     9     6    17
 0.0016064515     1     9     6    18
 -0.2210930788     1     9     7     2
 -0.0120782490     1     9     7     4
 0.0090138713     1     9     7    10
 0.0093386429     1     9     7    17
 0.0125972397     1     9     7    18
 0.0046098369     1     9     8    19
 -0.6046556208     1     9     9     1
 0.0138476985     1     9     9     3
 -0.0091802373     1     9     9     5
 0.0011121599     1     9     9    11
 0.0097118663     1     9     9    14
 -0.0028631751     1     9     9    19
 -0.0000982503     1     9    10     6
 -0.0007704450     1     9    10     7
 -0.0024432202     1     9    10    12
 -0.0010994404     1     9    10    13
 0.0004262176     1     9    11    15
 -0.0002367093     1     9    11    16
 -0.1158536038     1     9    12     2
 -0.0098352756     1     9    12     4
 0.0071018556     1     9    12    10
 0.0012295644     1     9    12    17
 0.0121840990     1     9    12    18
 -0.0521337078     1     9    13     2
 -0.0044258388     1     9    13     4
 0.0031958097     1     9    13    10
 0.0005532996     1     9    13    17
 0.0054828010     1     9    13    18
 -0.0009636149     1     9    14    15
 0.0005351645     1     9    14    16
 0.2175473711     1     9    15     1
 -0.0123457428     1     9    15     3
 0.0066437473     1     9    15     5
 -0.0010450522     1     9    15    11
 -0.0124957722     1     9    15    14
 0.0001723181     1     9    15    19
 -0.1208196902     1     9    16     1
 0.0068564783     1     9    16     3
 -0.0036897504     1     9    16     5
 0.0005803926     1     9    16    11
 0.0069398003     1     9    16    14
 -0.0035259455     1     9    16    19
 -0.0001191273     1     9    17     6
 -0.0009341549     1     9    17     7
 -0.0031142902     1     9    17    12
 -0.0014014194     1     9    17    13
 0.0000901777     1     9    18     6
 0.0007071428     1     9    18     7
 0.0010491373     1     9    18    12
 0.0004721080     1     9    18    13
 -0.0002065265     1     9    19    15
 0.0042259104     1     9    19    16
 -0.0011179305     1    10     2     1
 -0.0000447861     1    10     2     3
 -0.0000671446     1    10     2     5
 0.0000460318     1    10     2    11
 0.0000227782     1    10     2    14
 -0.1066349588     1    10     3     2
 -0.0018539253     1    10     3     4
 -0.0038859992     1    10     3    17
 -0.0002770630     1    10     3    18
 0.1220263340     1    10     4     1
 0.0001760908     1    10     4     3
 -0.0017428335     1    10     4     5
 0.0003902858     1    10     4    11
 0.0011854625     1    10     4    14
 -0.0034141580     1    10     5     2
 -0.0047128101     1    10     5     4
 -0.0079212377     1    10     5    17
 -0.0005550305     1    10     5    18
 -0.0090138713     1    10     6     8
 -0.0011494858     1    10     6     9
 0.0069203005     1    10     6    15
 0.0094160492     1    10     6    16
 0.0011494858     1    10     7     8
 -0.0090138713     1    10     7     9
 0.0094160492     1    10     7    15
 -0.0069203005     1    10     7    16
 -0.0097843163     1    10     8     6
 0.0012477361     1    10     8     7
 0.0042952501     1    10     8    12
 -0.0095450758     1    10     8    13
 -0.0012477361     1    10     9     6
 -0.0097843163     1    10     9     7
 -0.0095450758     1    10     9    12
 -0.0042952501     1    10     9    13
 -0.4012509744     1    10    10     1
 0.0002708116     1    10    10     3
 -0.0008344394     1    10    10     5
 0.0000237466     1    10    10    11
 0.0001184901     1    10    10    14
 -0.0493784556     1    10    11     2
 0.0045411587     1    10    11     4
 0.0109011393     1    10    11    17
 0.0017795485     1    10    11    18
 0.0031958097     1    10    12     8
 -0.0071018556     1    10    12     9
 0.0064903606     1    10    12    15
 -0.0086992886     1    10    12    16
 -0.0071018556     1    10    13     8
 -0.0031958097     1    10    13     9
 0.0086992886     1    10    13    15
 0.0064903606     1    10    13    16
 -0.0889370172     1    10    14     2
 0.0036289353     1    10    14     4
 0.0084519094     1    10    14    17
 0.0010837579     1    10    14    18
 0.0064048338     1    10    15     6
 0.0087146839     1    10    15     7
 0.0073561353     1    10    15    12
 0.0098597208     1    10    15    13
 0.0087146839     1    10    16     6
 -0.0064048338     1    10    16     7
 -0.0098597208     1    10    16    12
 0.0073561353     1    10    16    13
 -0.0915298516     1    10    17     1
 -0.0043709989     1    10    17     3
 -0.0130665068     1    10    17     5
 0.0081319233     1    10    17    11
 0.0077048203     1    10    17    14
 -0.1464353157     1    10    18     1
 -0.0014620006     1    10    18     3
 -0.0048397264     1    10    18     5
 0.0030611029     1    10    18    11
 0.0022179210     1    10    18    14
 -0.0113140374     1    11     2     2
 -0.0003897784     1    11     2     4
 -0.0000460318     1    11     2    10
 -0.0008879891     1    11     2    17
 -0.0001774917     1    11     2    18
 0.0962535431     1    11     3     1
 -0.0156395867     1    11     3     3
 -0.0005557901     1    11     3     5
 -0.0075108243     1    11     3    14
 0.0272548946     1    11     4     2
 0.0069230623     1    11     4     4
 -0.0003902858     1    11     4    10
 0.0062829554     1    11     4    17
 -0.0012621554     1    11     4    18
 0.1539379092     1    11     5     1
 -0.0117157876     1    11     5     3
 0.0098399861     1    11     5     5
 -0.0130940963     1    11     5    14
 -0.0076071570     1    11     6     6
 0.0015084737     1    11     6    12
 -0.0049462785     1    11     6    13
 -0.0076071570     1    11     7     7
 -0.0049462785     1    11     7    12
 -0.0015084737     1    11     7    13
 -0.0011121599     1    11     8     8
 0.0008171019     1    11     8    15
 0.0014712698     1    11     8    16
 -0.0011121599     1    11     9     9
 0.0014712698     1    11     9    15
 -0.0008171019     1    11     9    16
 -0.0494244874     1    11    10     2
 0.0041508729     1    11    10     4
 -0.0000237466     1    11    10    10
 0.0027692160     1    11    10    17
 -0.0012815544     1    11    10    18
 -0.4837242637     1    11    11     1
 0.0064992238     1    11    11     3
 -0.0035968169     1    11    11     5
 0.0098220121     1    11    11    14
 0.0001049964     1    11    12     6
 -0.0003442828     1    11    12     7
 -0.0007206120     1    11    12    12
 -0.0003442828     1    11    13     6
 -0.0001049964     1    11    13     7
 -0.0007206120     1    11    13    13
 0.0121931037     1    11    14     1
 0.0039651552     1    11    14     3
 -0.0011719130     1    11    14     5
 0.0019824607     1    11    14    14
 0.0005803926     1    11    15     8
 0.0010450522     1    11    15     9
 -0.0013348195     1    11    15    15
 0.0010450522     1    11    16     8
 -0.0005803926     1    11    16     9
 -0.0013348195     1    11    16    16
 0.1117287490     1    11    17     2
 0.0135840195     1    11    17     4
 -0.0081319233     1    11    17    10
 0.0000581020     1    11    17    17
 -0.0119764612     1    11    17    18
 0.0388165440     1    11    18     2
 0.0036945870     1    11    18     4
 -0.0030611029     1    11    18    10
 -0.0023955942     1    11    18    17
 -0.0055968253     1    11    18    18
 -0.0045108922     1    11    19    19
 -0.0001986455     1    12     2     8
 0.0004414379     1    12     2     9
 -0.0003725821     1    12     2    15
 0.0004993866     1    12     2    16
 -0.0024109147     1    12     3     6
 0.0079053787     1    12     3     7
 0.0035443760     1    12     4     8
 -0.0078764535     1    12     4     9
 0.0012307877     1    12     4    15
 -0.0016496737     1    12     4    16
 0.0013087403     1    12     5     6
 -0.0042913539     1    12     5     7
 0.0648644028     1    12     6     1
 -0.0061451661     1    12     6     3
 0.0032929276     1    12     6     5
 -0.0015084737     1    12     6    11
 -0.0034065593     1    12     6    14
 0.0047460198     1    12     6    19