&FCI NORB=  6,NELEC=  6,MS2=0,
 ORBSYM=1,1,1,1,1,1
 ISYM=1,
&END
 0.3669324436     1     1     2     2
 0.3669324436     1     1     3     3
 0.3706499440     1     1     4     4
 0.3706499440     1     1     5     5
 0.2153473420     1     1     6     6
 -0.3669324436     1     2     2     1
 -0.0000000001     1     2     2     6
 -0.0044445073     1     2     4     6
 0.1743867685     1     2     5     6
 0.0000300323     1     2     6     4
 -0.0011783636     1     2     6     5
 -0.3669324436     1     3     3     1
 0.0000000001     1     3     3     6
 -0.1743867685     1     3     4     6
 -0.0044445073     1     3     5     6
 0.0011783636     1     3     6     4
 0.0000300323     1     3     6     5
 -0.0044745396     1     4     2     6
 -0.1755651321     1     4     3     6
 -0.3706499440     1     4     4     1
 -0.0000000001     1     4     4     6
 -0.0000300323     1     4     6     2
 -0.0011783636     1     4     6     3
 0.1755651321     1     5     2     6
 -0.0044745396     1     5     3     6
 -0.3706499440     1     5     5     1
 0.0000000001     1     5     5     6
 0.0011783636     1     5     6     2
 -0.0000300323     1     5     6     3
 0.0000000001     1     6     2     2
 0.0044745396     1     6     2     4
 -0.1755651321     1     6     2     5
 -0.0000000001     1     6     3     3
 0.1755651321     1     6     3     4
 0.0044745396     1     6     3     5
 0.0044445073     1     6     4     2
 0.1743867685     1     6     4     3
 0.0000000001     1     6     4     4
 -0.1743867685     1     6     5     2
 0.0044445073     1     6     5     3
 -0.0000000001     1     6     5     5
 -0.2153473420     1     6     6     1
 -0.3669324436     2     1     1     2
 0.0000300323     2     1     4     6
 -0.0011783636     2     1     5     6
 -0.0000000001     2     1     6     2
 -0.0044445073     2     1     6     4
 0.1743867685     2     1     6     5
 0.3669324436     2     2     1     1
 0.0000000001     2     2     1     6
 0.3633304036     2     2     3     3
 0.0000000001     2     2     3     4
 0.0000000001     2     2     4     3
 0.3667674095     2     2     4     4
 0.0046153197     2     2     4     5
 0.0046153197     2     2     5     4
 0.1857961936     2     2     5     5
 0.0000000001     2     2     6     1
 0.3773080961     2     2     6     6
 -0.3633304036     2     3     3     2
 -0.0000000001     2     3     3     5
 -0.0000000001     2     3     4     2
 -0.0046153197     2     3     4     4
 0.1813720435     2     3     4     5
 -0.0004008276     2     3     5     4
 0.0046153197     2     3     5     5
 0.0044745396     2     4     1     6
 -0.0000000001     2     4     3     2
 0.1817728711     2     4     3     5
 -0.3667674095     2     4     4     2
 0.0046153197     2     4     4     3
 0.0000000001     2     4     4     5
 -0.0046153197     2     4     5     2
 0.0004008276     2     4     5     3
 0.0044445073     2     4     6     1
 -0.1755651321     2     5     1     6
 0.0000000001     2     5     3     3
 -0.1817728711     2     5     3     4
 -0.0046153197     2     5     4     2
 -0.1813720435     2     5     4     3
 -0.0000000001     2     5     4     4
 -0.1857961936     2     5     5     2
 -0.0046153197     2     5     5     3
 -0.1743867685     2     5     6     1
 -0.0000000001     2     6     1     2
 -0.0044745396     2     6     1     4
 0.1755651321     2     6     1     5
 -0.0000300323     2     6     4     1
 0.0011783636     2     6     5     1
 -0.3773080961     2     6     6     2
 -0.3669324436     3     1     1     3
 0.0011783636     3     1     4     6
 0.0000300323     3     1     5     6
 0.0000000001     3     1     6     3
 -0.1743867685     3     1     6     4
 -0.0044445073     3     1     6     5
 -0.3633304036     3     2     2     3
 -0.0000000001     3     2     2     4
 -0.0046153197     3     2     4     4
 -0.0004008276     3     2     4     5
 -0.0000000001     3     2     5     3
 0.1813720435     3     2     5     4
 0.0046153197     3     2     5     5
 0.3669324436     3     3     1     1
 -0.0000000001     3     3     1     6
 0.3633304036     3     3     2     2
 0.0000000001     3     3     2     5
 0.1857961936     3     3     4     4
 -0.0046153197     3     3     4     5
 0.0000000001     3     3     5     2
 -0.0046153197     3     3     5     4
 0.3667674095     3     3     5     5
 -0.0000000001     3     3     6     1
 0.3773080961     3     3     6     6
 0.1755651321     3     4     1     6
 0.0000000001     3     4     2     2
 -0.1817728711     3     4     2     5
 0.0046153197     3     4     4     2
 -0.1857961936     3     4     4     3
 -0.1813720435     3     4     5     2
 0.0046153197     3     4     5     3
 -0.0000000001     3     4     5     5
 0.1743867685     3     4     6     1
 0.0044745396     3     5     1     6
 -0.0000000001     3     5     2     3
 0.1817728711     3     5     2     4
 0.0004008276     3     5     4     2
 0.0046153197     3     5     4     3
 -0.0046153197     3     5     5     2
 -0.3667674095     3     5     5     3
 0.0000000001     3     5     5     4
 0.0044445073     3     5     6     1
 0.0000000001     3     6     1     3
 -0.1755651321     3     6     1     4
 -0.0044745396     3     6     1     5
 -0.0011783636     3     6     4     1
 -0.0000300323     3     6     5     1
 -0.3773080961     3     6     6     3
 -0.3706499440     4     1     1     4
 -0.0000300323     4     1     2     6
 -0.0011783636     4     1     3     6
 -0.0044745396     4     1     6     2
 -0.1755651321     4     1     6     3
 -0.0000000001     4     1     6     4
 0.0044445073     4     2     1     6
 -0.0000000001     4     2     2     3
 -0.3667674095     4     2     2     4
 -0.0046153197     4     2     2     5
 0.0046153197     4     2     3     4
 0.0004008276     4     2     3     5
 0.1817728711     4     2     5     3
 0.0000000001     4     2     5     4
 0.0044745396     4     2     6     1
 0.1743867685     4     3     1     6
 0.0000000001     4     3     2     2
 0.0046153197     4     3     2     4
 -0.1813720435     4     3     2     5
 -0.1857961936     4     3     3     4
 0.0046153197     4     3     3     5
 -0.1817728711     4     3     5     2
 -0.0000000001     4     3     5     5
 0.1755651321     4     3     6     1
 0.3706499440     4     4     1     1
 0.0000000001     4     4     1     6
 0.3667674095     4     4     2     2
 -0.0046153197     4     4     2     3
 -0.0000000001     4     4     2     5
 -0.0046153197     4     4     3     2
 0.1857961936     4     4     3     3
 -0.0000000001     4     4     5     2
 0.3703863436     4     4     5     5
 0.0000000001     4     4     6     1
 0.3802109796     4     4     6     6
 0.0046153197     4     5     2     2
 0.1813720435     4     5     2     3
 0.0000000001     4     5     2     4
 -0.0004008276     4     5     3     2
 -0.0046153197     4     5     3     3
 0.0000000001     4     5     5     3
 -0.3703863436     4     5     5     4
 -0.0044445073     4     6     1     2
 -0.1743867685     4     6     1     3
 -0.0000000001     4     6     1     4
 0.0000300323     4     6     2     1
 0.0011783636     4     6     3     1
 -0.3802109796     4     6     6     4
 -0.3706499440     5     1     1     5
 0.0011783636     5     1     2     6
 -0.0000300323     5     1     3     6
 0.1755651321     5     1     6     2
 -0.0044745396     5     1     6     3
 0.0000000001     5     1     6     5
 -0.1743867685     5     2     1     6
 -0.0046153197     5     2     2     4
 -0.1857961936     5     2     2     5
 0.0000000001     5     2     3     3
 -0.1813720435     5     2     3     4
 -0.0046153197     5     2     3     5
 -0.1817728711     5     2     4     3
 -0.0000000001     5     2     4     4
 -0.1755651321     5     2     6     1
 0.0044445073     5     3     1     6
 0.0004008276     5     3     2     4
 -0.0046153197     5     3     2     5
 -0.0000000001     5     3     3     2
 0.0046153197     5     3     3     4
 -0.3667674095     5     3     3     5
 0.1817728711     5     3     4     2
 0.0000000001     5     3     4     5
 0.0044745396     5     3     6     1
 0.0046153197     5     4     2     2
 -0.0004008276     5     4     2     3
 0.1813720435     5     4     3     2
 -0.0046153197     5     4     3     3
 0.0000000001     5     4     3     5
 0.0000000001     5     4     4     2
 -0.3703863436     5     4     4     5
 0.3706499440     5     5     1     1
 -0.0000000001     5     5     1     6
 0.1857961936     5     5     2     2
 0.0046153197     5     5     2     3
 0.0046153197     5     5     3     2
 0.3667674095     5     5     3     3
 -0.0000000001     5     5     3     4
 -0.0000000001     5     5     4     3
 0.3703863436     5     5     4     4
 -0.0000000001     5     5     6     1
 0.3802109796     5     5     6     6
 0.1743867685     5     6     1     2
 -0.0044445073     5     6     1     3
 0.0000000001     5     6     1     5
 -0.0011783636     5     6     2     1
 0.0000300323     5     6     3     1
 -0.3802109796     5     6     6     5
 -0.2153473420     6     1     1     6
 0.0000000001     6     1     2     2
 0.0044445073     6     1     2     4
 -0.1743867685     6     1     2     5
 -0.0000000001     6     1     3     3
 0.1743867685     6     1     3     4
 0.0044445073     6     1     3     5
 0.0044745396     6     1     4     2
 0.1755651321     6     1     4     3
 0.0000000001     6     1     4     4
 -0.1755651321     6     1     5     2
 0.0044745396     6     1     5     3
 -0.0000000001     6     1     5     5
 -0.0000300323     6     2     1     4
 0.0011783636     6     2     1     5
 -0.0000000001     6     2     2     1
 -0.3773080961     6     2     2     6
 -0.0044745396     6     2     4     1
 0.1755651321     6     2     5     1
 -0.0011783636     6     3     1     4
 -0.0000300323     6     3     1     5
 0.0000000001     6     3     3     1
 -0.3773080961     6     3     3     6
 -0.1755651321     6     3     4     1
 -0.0044745396     6     3     5     1
 0.0000300323     6     4     1     2
 0.0011783636     6     4     1     3
 -0.0044445073     6     4     2     1
 -0.1743867685     6     4     3     1
 -0.0000000001     6     4     4     1
 -0.3802109796     6     4     4     6
 -0.0011783636     6     5     1     2
 0.0000300323     6     5     1     3
 0.1743867685     6     5     2     1
 -0.0044445073     6     5     3     1
 0.0000000001     6     5     5     1
 -0.3802109796     6     5     5     6
 0.2153473420     6     6     1     1
 0.3773080961     6     6     2     2
 0.3773080961     6     6     3     3
 0.3802109796     6     6     4     4
 0.3802109796     6     6     5     5
0.0 0 0 0 0
 0.3669324436     1     1     2     2
 0.3669324436     1     1     3     3
 0.3706499440     1     1     4     4
 0.3706499440     1     1     5     5
 0.2153473420     1     1     6     6
 -0.3669324436     1     2     2     1
 -0.0000000001     1     2     2     6
 -0.0044445073     1     2     4     6
 0.1743867685     1     2     5     6
 0.0000300323     1     2     6     4
 -0.0011783636     1     2     6     5
 -0.3669324436     1     3     3     1
 0.0000000001     1     3     3     6
 -0.1743867685     1     3     4     6
 -0.0044445073     1     3     5     6
 0.0011783636     1     3     6     4
 0.0000300323     1     3     6     5
 -0.0044745396     1     4     2     6
 -0.1755651321     1     4     3     6
 -0.3706499440     1     4     4     1
 -0.0000000001     1     4     4     6
 -0.0000300323     1     4     6     2
 -0.0011783636     1     4     6     3
 0.1755651321     1     5     2     6
 -0.0044745396     1     5     3     6
 -0.3706499440     1     5     5     1
 0.0000000001     1     5     5     6
 0.0011783636     1     5     6     2
 -0.0000300323     1     5     6     3
 0.0000000001     1     6     2     2
 0.0044745396     1     6     2     4
 -0.1755651321     1     6     2     5
 -0.0000000001     1     6     3     3
 0.1755651321     1     6     3     4
 0.0044745396     1     6     3     5
 0.0044445073     1     6     4     2
 0.1743867685     1     6     4     3
 0.0000000001     1     6     4     4
 -0.1743867685     1     6     5     2
 0.0044445073     1     6     5     3
 -0.0000000001     1     6     5     5
 -0.2153473420     1     6     6     1
 -0.3669324436     2     1     1     2
 0.0000300323     2     1     4     6
 -0.0011783636     2     1     5     6
 -0.0000000001     2     1     6     2
 -0.0044445073     2     1     6     4
 0.1743867685     2     1     6     5
 0.3669324436     2     2     1     1
 0.0000000001     2     2     1     6
 0.3633304036     2     2     3     3
 0.0000000001     2     2     3     4
 0.0000000001     2     2     4     3
 0.3667674095     2     2     4     4
 0.0046153197     2     2     4     5
 0.0046153197     2     2     5     4
 0.1857961936     2     2     5     5
 0.0000000001     2     2     6     1
 0.3773080961     2     2     6     6
 -0.3633304036     2     3     3     2
 -0.0000000001     2     3     3     5
 -0.0000000001     2     3     4     2
 -0.0046153197     2     3     4     4
 0.1813720435     2     3     4     5
 -0.0004008276     2     3     5     4
 0.0046153197     2     3     5     5
 0.0044745396     2     4     1     6
 -0.0000000001     2     4     3     2
 0.1817728711     2     4     3     5
 -0.3667674095     2     4     4     2
 0.0046153197     2     4     4     3
 0.0000000001     2     4     4     5
 -0.0046153197     2     4     5     2
 0.0004008276     2     4     5     3
 0.0044445073     2     4     6     1
 -0.1755651321     2     5     1     6
 0.0000000001     2     5     3     3
 -0.1817728711     2     5     3     4
 -0.0046153197     2     5     4     2
 -0.1813720435     2     5     4     3
 -0.0000000001     2     5     4     4
 -0.1857961936     2     5     5     2
 -0.0046153197     2     5     5     3
 -0.1743867685     2     5     6     1
 -0.0000000001     2     6     1     2
 -0.0044745396     2     6     1     4
 0.1755651321     2     6     1     5
 -0.0000300323     2     6     4     1
 0.0011783636     2     6     5     1
 -0.3773080961     2     6     6     2
 -0.3669324436     3     1     1     3
 0.0011783636     3     1     4     6
 0.0000300323     3     1     5     6
 0.0000000001     3     1     6     3
 -0.1743867685     3     1     6     4
 -0.0044445073     3     1     6     5
 -0.3633304036     3     2     2     3
 -0.0000000001     3     2     2     4
 -0.0046153197     3     2     4     4
 -0.0004008276     3     2     4     5
 -0.0000000001     3     2     5     3
 0.1813720435     3     2     5     4
 0.0046153197     3     2     5     5
 0.3669324436     3     3     1     1
 -0.0000000001     3     3     1     6
 0.3633304036     3     3     2     2
 0.0000000001     3     3     2     5
 0.1857961936     3     3     4     4
 -0.0046153197     3     3     4     5
 0.0000000001     3     3     5     2
 -0.0046153197     3     3     5     4
 0.3667674095     3     3     5     5
 -0.0000000001     3     3     6     1
 0.3773080961     3     3     6     6
 0.1755651321     3     4     1     6
 0.0000000001     3     4     2     2
 -0.1817728711     3     4     2     5
 0.0046153197     3     4     4     2
 -0.1857961936     3     4     4     3
 -0.1813720435     3     4     5     2
 0.0046153197     3     4     5     3
 -0.0000000001     3     4     5     5
 0.1743867685     3     4     6     1
 0.0044745396     3     5     1     6
 -0.0000000001     3     5     2     3
 0.1817728711     3     5     2     4
 0.0004008276     3     5     4     2
 0.0046153197     3     5     4     3
 -0.0046153197     3     5     5     2
 -0.3667674095     3     5     5     3
 0.0000000001     3     5     5     4
 0.0044445073     3     5     6     1
 0.0000000001     3     6     1     3
 -0.1755651321     3     6     1     4
 -0.0044745396     3     6     1     5
 -0.0011783636     3     6     4     1
 -0.0000300323     3     6     5     1
 -0.3773080961     3     6     6     3
 -0.3706499440     4     1     1     4
 -0.0000300323     4     1     2     6
 -0.0011783636     4     1     3     6
 -0.0044745396     4     1     6     2
 -0.1755651321     4     1     6     3
 -0.0000000001     4     1     6     4
 0.0044445073     4     2     1     6
 -0.0000000001     4     2     2     3
 -0.3667674095     4     2     2     4
 -0.0046153197     4     2     2     5
 0.0046153197     4     2     3     4
 0.0004008276     4     2     3     5
 0.1817728711     4     2     5     3
 0.0000000001     4     2     5     4
 0.0044745396     4     2     6     1
 0.1743867685     4     3     1     6
 0.0000000001     4     3     2     2
 0.0046153197     4     3     2     4
 -0.1813720435     4     3     2     5
 -0.1857961936     4     3     3     4
 0.0046153197     4     3     3     5
 -0.1817728711     4     3     5     2
 -0.0000000001     4     3     5     5
 0.1755651321     4     3     6     1
 0.3706499440     4     4     1     1
 0.0000000001     4     4     1     6
 0.3667674095     4     4     2     2
 -0.0046153197     4     4     2     3
 -0.0000000001     4     4     2     5
 -0.0046153197     4     4     3     2
 0.1857961936     4     4     3     3
 -0.0000000001     4     4     5     2
 0.3703863436     4     4     5     5
 0.0000000001     4     4     6     1
 0.3802109796     4     4     6     6
 0.0046153197     4     5     2     2
 0.1813720435     4     5     2     3
 0.0000000001     4     5     2     4
 -0.0004008276     4     5     3     2
 -0.0046153197     4     5     3     3
 0.0000000001     4     5     5     3
 -0.3703863436     4     5     5     4
 -0.0044445073     4     6     1     2
 -0.1743867685     4     6     1     3
 -0.0000000001     4     6     1     4
 0.0000300323     4     6     2     1
 0.0011783636     4     6     3     1
 -0.3802109796     4     6     6     4
 -0.3706499440     5     1     1     5
 0.0011783636     5     1     2     6
 -0.0000300323     5     1     3     6
 0.1755651321     5     1     6     2
 -0.0044745396     5     1     6     3
 0.0000000001     5     1     6     5
 -0.1743867685     5     2     1     6
 -0.0046153197     5     2     2     4
 -0.1857961936     5     2     2     5
 0.0000000001     5     2     3     3
 -0.1813720435     5     2     3     4
 -0.0046153197     5     2     3     5
 -0.1817728711     5     2     4     3
 -0.0000000001     5     2     4     4
 -0.1755651321     5     2     6     1
 0.0044445073     5     3     1     6
 0.0004008276     5     3     2     4
 -0.0046153197     5     3     2     5
 -0.0000000001     5     3     3     2
 0.0046153197     5     3     3     4
 -0.3667674095     5     3     3     5
 0.1817728711     5     3     4     2
 0.0000000001     5     3     4     5
 0.0044745396     5     3     6     1
 0.0046153197     5     4     2     2
 -0.0004008276     5     4     2     3
 0.1813720435     5     4     3     2
 -0.0046153197     5     4     3     3
 0.0000000001     5     4     3     5
 0.0000000001     5     4     4     2
 -0.3703863436     5     4     4     5
 0.3706499440     5     5     1     1
 -0.0000000001     5     5     1     6
 0.1857961936     5     5     2     2
 0.0046153197     5     5     2     3
 0.0046153197     5     5     3     2
 0.3667674095     5     5     3     3
 -0.0000000001     5     5     3     4
 -0.0000000001     5     5     4     3
 0.3703863436     5     5     4     4
 -0.0000000001     5     5     6     1
 0.3802109796     5     5     6     6
 0.1743867685     5     6     1     2
 -0.0044445073     5     6     1     3
 0.0000000001     5     6     1     5
 -0.0011783636     5     6     2     1
 0.0000300323     5     6     3     1
 -0.3802109796     5     6     6     5
 -0.2153473420     6     1     1     6
 0.0000000001     6     1     2     2
 0.0044445073     6     1     2     4
 -0.1743867685     6     1     2     5
 -0.0000000001     6     1     3     3
 0.1743867685     6     1     3     4
 0.0044445073     6     1     3     5
 0.0044745396     6     1     4     2
 0.1755651321     6     1     4     3
 0.0000000001     6     1     4     4
 -0.1755651321     6     1     5     2
 0.0044745396     6     1     5     3
 -0.0000000001     6     1     5     5
 -0.0000300323     6     2     1     4
 0.0011783636     6     2     1     5
 -0.0000000001     6     2     2     1
 -0.3773080961     6     2     2     6
 -0.0044745396     6     2     4     1
 0.1755651321     6     2     5     1
 -0.0011783636     6     3     1     4
 -0.0000300323     6     3     1     5
 0.0000000001     6     3     3     1
 -0.3773080961     6     3     3     6
 -0.1755651321     6     3     4     1
 -0.0044745396     6     3     5     1
 0.0000300323     6     4     1     2
 0.0011783636     6     4     1     3
 -0.0044445073     6     4     2     1
 -0.1743867685     6     4     3     1
 -0.0000000001     6     4     4     1
 -0.3802109796     6     4     4     6
 -0.0011783636     6     5     1     2
 0.0000300323     6     5     1     3
 0.1743867685     6     5     2     1
 -0.0044445073     6     5     3     1
 0.0000000001     6     5     5     1
 -0.3802109796     6     5     5     6
 0.2153473420     6     6     1     1
 0.3773080961     6     6     2     2
 0.3773080961     6     6     3     3
 0.3802109796     6     6     4     4
 0.3802109796     6     6     5     5
0.0 0 0 0 0
 0.4217388296     1     1     1     1
 0.3832900516     1     1     2     2
 0.3832900516     1     1     3     3
 0.3857992805     1     1     4     4
 0.3857992805     1     1     5     5
 0.4291253812     1     1     6     6
 0.0163576080     1     2     1     2
 0.0163576080     1     2     2     1
 0.0004099103     1     2     4     6
 -0.0160834332     1     2     5     6
 0.0004099103     1     2     6     4
 -0.0160834332     1     2     6     5
 0.0163576080     1     3     1     3
 0.0163576080     1     3     3     1
 0.0160834332     1     3     4     6
 0.0004099103     1     3     5     6
 0.0160834332     1     3     6     4
 0.0004099103     1     3     6     5
 0.0151493365     1     4     1     4
 0.0003798780     1     4     2     6
 0.0149050696     1     4     3     6
 0.0151493365     1     4     4     1
 0.0003798780     1     4     6     2
 0.0149050696     1     4     6     3
 0.0151493365     1     5     1     5
 -0.0149050696     1     5     2     6
 0.0003798780     1     5     3     6
 0.0151493365     1     5     5     1
 -0.0149050696     1     5     6     2
 0.0003798780     1     5     6     3
 0.2137780392     1     6     1     6
 0.0000000001     1     6     2     2
 0.0048544176     1     6     2     4
 -0.1904702017     1     6     2     5
 -0.0000000001     1     6     3     3
 0.1904702017     1     6     3     4
 0.0048544176     1     6     3     5
 0.0048544176     1     6     4     2
 0.1904702017     1     6     4     3
 0.0000000001     1     6     4     4
 -0.1904702017     1     6     5     2
 0.0048544176     1     6     5     3
 -0.0000000001     1     6     5     5
 0.2137780392     1     6     6     1
 0.0163576080     2     1     1     2
 0.0163576080     2     1     2     1
 0.0004099103     2     1     4     6
 -0.0160834332     2     1     5     6
 0.0004099103     2     1     6     4
 -0.0160834332     2     1     6     5
 0.3832900516     2     2     1     1
 0.0000000001     2     2     1     6
 0.4101574880     2     2     2     2
 -0.0000000001     2     2     2     5
 0.3789394317     2     2     3     3
 0.0000000001     2     2     3     4
 0.0000000001     2     2     4     3
 0.3826745764     2     2     4     4
 -0.0008176821     2     2     4     5
 -0.0000000001     2     2     5     2
 -0.0008176821     2     2     5     4
 0.4147366928     2     2     5     5
 0.0000000001     2     2     6     1
 0.3941914586     2     2     6     6
 0.0156090281     2     3     2     3
 0.0156090281     2     3     3     2
 0.0008176821     2     3     4     4
 -0.0160310582     2     3     4     5
 -0.0160310582     2     3     5     4
 -0.0008176821     2     3     5     5
 0.0048544176     2     4     1     6
 0.0159071669     2     4     2     4
 -0.0054330018     2     4     2     5
 0.0054330018     2     4     3     4
 -0.0156302306     2     4     3     5
 0.0159071669     2     4     4     2
 0.0054330018     2     4     4     3
 -0.0054330018     2     4     5     2
 -0.0156302306     2     4     5     3
 0.0048544176     2     4     6     1
 -0.1904702017     2     5     1     6
 -0.0000000001     2     5     2     2
 -0.0054330018     2     5     2     4
 0.2289404992     2     5     2     5
 0.0000000001     2     5     3     3
 -0.1974031017     2     5     3     4
 -0.0054330018     2     5     3     5
 -0.0054330018     2     5     4     2
 -0.1974031017     2     5     4     3
 -0.0000000001     2     5     4     4
 0.2289404992     2     5     5     2
 -0.0054330018     2     5     5     3
 0.0000000001     2     5     5     5
 -0.1904702017     2     5     6     1
 0.0003798780     2     6     1     4
 -0.0149050696     2     6     1     5
 0.0168833625     2     6     2     6
 0.0003798780     2     6     4     1
 -0.0149050696     2     6     5     1
 0.0168833625     2     6     6     2
 0.0163576080     3     1     1     3
 0.0163576080     3     1     3     1
 0.0160834332     3     1     4     6
 0.0004099103     3     1     5     6
 0.0160834332     3     1     6     4
 0.0004099103     3     1     6     5
 0.0156090281     3     2     2     3
 0.0156090281     3     2     3     2
 0.0008176821     3     2     4     4
 -0.0160310582     3     2     4     5
 -0.0160310582     3     2     5     4
 -0.0008176821     3     2     5     5
 0.3832900516     3     3     1     1
 -0.0000000001     3     3     1     6
 0.3789394317     3     3     2     2
 0.0000000001     3     3     2     5
 0.4101574880     3     3     3     3
 -0.0000000001     3     3     3     4
 -0.0000000001     3     3     4     3
 0.4147366928     3     3     4     4
 0.0008176821     3     3     4     5
 0.0000000001     3     3     5     2
 0.0008176821     3     3     5     4
 0.3826745764     3     3     5     5
 -0.0000000001     3     3     6     1
 0.3941914586     3     3     6     6
 0.1904702017     3     4     1     6
 0.0000000001     3     4     2     2
 0.0054330018     3     4     2     4
 -0.1974031017     3     4     2     5
 -0.0000000001     3     4     3     3
 0.2289404992     3     4     3     4
 0.0054330018     3     4     3     5
 0.0054330018     3     4     4     2
 0.2289404992     3     4     4     3
 0.0000000001     3     4     4     4
 -0.1974031017     3     4     5     2
 0.0054330018     3     4     5     3
 -0.0000000001     3     4     5     5
 0.1904702017     3     4     6     1
 0.0048544176     3     5     1     6
 -0.0156302306     3     5     2     4
 -0.0054330018     3     5     2     5
 0.0054330018     3     5     3     4
 0.0159071669     3     5     3     5
 -0.0156302306     3     5     4     2
 0.0054330018     3     5     4     3
 -0.0054330018     3     5     5     2
 0.0159071669     3     5     5     3
 0.0048544176     3     5     6     1
 0.0149050696     3     6     1     4
 0.0003798780     3     6     1     5
 0.0168833625     3     6     3     6
 0.0149050696     3     6     4     1
 0.0003798780     3     6     5     1
 0.0168833625     3     6     6     3
 0.0151493365     4     1     1     4
 0.0003798780     4     1     2     6
 0.0149050696     4     1     3     6
 0.0151493365     4     1     4     1
 0.0003798780     4     1     6     2
 0.0149050696     4     1     6     3
 0.0048544176     4     2     1     6
 0.0159071669     4     2     2     4
 -0.0054330018     4     2     2     5
 0.0054330018     4     2     3     4
 -0.0156302306     4     2     3     5
 0.0159071669     4     2     4     2
 0.0054330018     4     2     4     3
 -0.0054330018     4     2     5     2
 -0.0156302306     4     2     5     3
 0.0048544176     4     2     6     1
 0.1904702017     4     3     1     6
 0.0000000001     4     3     2     2
 0.0054330018     4     3     2     4
 -0.1974031017     4     3     2     5
 -0.0000000001     4     3     3     3
 0.2289404992     4     3     3     4
 0.0054330018     4     3     3     5
 0.0054330018     4     3     4     2
 0.2289404992     4     3     4     3
 0.0000000001     4     3     4     4
 -0.1974031017     4     3     5     2
 0.0054330018     4     3     5     3
 -0.0000000001     4     3     5     5
 0.1904702017     4     3     6     1
 0.3857992805     4     4     1     1
 0.0000000001     4     4     1     6
 0.3826745764     4     4     2     2
 0.0008176821     4     4     2     3
 -0.0000000001     4     4     2     5
 0.0008176821     4     4     3     2
 0.4147366928     4     4     3     3
 0.0000000001     4     4     3     4
 0.0000000001     4     4     4     3
 0.4201892635     4     4     4     4
 -0.0000000001     4     4     5     2
 0.3869873169     4     4     5     5
 0.0000000001     4     4     6     1
 0.3977999117     4     4     6     6
 -0.0008176821     4     5     2     2
 -0.0160310582     4     5     2     3
 -0.0160310582     4     5     3     2
 0.0008176821     4     5     3     3
 0.0166009733     4     5     4     5
 0.0166009733     4     5     5     4
 0.0004099103     4     6     1     2
 0.0160834332     4     6     1     3
 0.0004099103     4     6     2     1
 0.0160834332     4     6     3     1
 0.0175889321     4     6     4     6
 0.0175889321     4     6     6     4
 0.0151493365     5     1     1     5
 -0.0149050696     5     1     2     6
 0.0003798780     5     1     3     6
 0.0151493365     5     1     5     1
 -0.0149050696     5     1     6     2
 0.0003798780     5     1     6     3
 -0.1904702017     5     2     1     6
 -0.0000000001     5     2     2     2
 -0.0054330018     5     2     2     4
 0.2289404992     5     2     2     5
 0.0000000001     5     2     3     3
 -0.1974031017     5     2     3     4
 -0.0054330018     5     2     3     5
 -0.0054330018     5     2     4     2