&FCI NORB=  6,NELEC=  6,MS2=0,
 ORBSYM=1,1,1,1,1,1
 ISYM=1,
&END
 0.3929042661     1     1     2     2
 0.3929042661     1     1     3     3
 0.3798111642     1     1     4     4
 0.3798111642     1     1     5     5
 0.2240856414     1     1     6     6
 -0.3929042661     1     2     2     1
 0.1216769393     1     2     4     6
 0.1218770490     1     2     5     6
 -0.0013347334     1     2     6     4
 -0.0013369286     1     2     6     5
 -0.3929042661     1     3     3     1
 -0.1218770490     1     3     4     6
 0.1216769392     1     3     5     6
 0.0013369286     1     3     6     4
 -0.0013347334     1     3     6     5
 0.1185047356     1     4     2     6
 -0.1186996284     1     4     3     6
 -0.3798111642     1     4     4     1
 0.0013347334     1     4     6     2
 -0.0013369286     1     4     6     3
 0.1186996283     1     5     2     6
 0.1185047356     1     5     3     6
 -0.3798111642     1     5     5     1
 0.0013369286     1     5     6     2
 0.0013347334     1     5     6     3
 -0.1185047356     1     6     2     4
 -0.1186996283     1     6     2     5
 0.1186996284     1     6     3     4
 -0.1185047356     1     6     3     5
 -0.1216769393     1     6     4     2
 0.1218770490     1     6     4     3
 -0.1218770490     1     6     5     2
 -0.1216769392     1     6     5     3
 -0.2240856414     1     6     6     1
 -0.3929042661     2     1     1     2
 -0.0013347334     2     1     4     6
 -0.0013369286     2     1     5     6
 0.1216769392     2     1     6     4
 0.1218770490     2     1     6     5
 0.3929042661     2     2     1     1
 0.3938971612     2     2     3     3
 0.2914772176     2     2     4     4
 -0.0872851890     2     2     4     5
 -0.0872851890     2     2     5     4
 0.2911903550     2     2     5     5
 0.3894061643     2     2     6     6
 -0.3938971612     2     3     3     2
 0.0872851890     2     3     4     4
 0.0889362163     2     3     4     5
 -0.0886493537     2     3     5     4
 -0.0872851890     2     3     5     5
 -0.1185047356     2     4     1     6
 0.1716606488     2     4     3     5
 -0.2914772176     2     4     4     2
 -0.0872851890     2     4     4     3
 0.0872851890     2     4     5     2
 0.0886493537     2     4     5     3
 -0.1216769392     2     4     6     1
 -0.1186996283     2     5     1     6
 -0.1716606488     2     5     3     4
 0.0872851890     2     5     4     2
 -0.0889362163     2     5     4     3
 -0.2911903550     2     5     5     2
 0.0872851890     2     5     5     3
 -0.1218770490     2     5     6     1
 0.1185047356     2     6     1     4
 0.1186996283     2     6     1     5
 0.0013347334     2     6     4     1
 0.0013369286     2     6     5     1
 -0.3894061643     2     6     6     2
 -0.3929042661     3     1     1     3
 0.0013369286     3     1     4     6
 -0.0013347334     3     1     5     6
 -0.1218770490     3     1     6     4
 0.1216769393     3     1     6     5
 -0.3938971612     3     2     2     3
 0.0872851890     3     2     4     4
 -0.0886493537     3     2     4     5
 0.0889362163     3     2     5     4
 -0.0872851890     3     2     5     5
 0.3929042661     3     3     1     1
 0.3938971612     3     3     2     2
 0.2911903551     3     3     4     4
 0.0872851890     3     3     4     5
 0.0872851890     3     3     5     4
 0.2914772176     3     3     5     5
 0.3894061643     3     3     6     6
 0.1186996283     3     4     1     6
 -0.1716606488     3     4     2     5
 -0.0872851890     3     4     4     2
 -0.2911903551     3     4     4     3
 -0.0889362163     3     4     5     2
 -0.0872851890     3     4     5     3
 0.1218770490     3     4     6     1
 -0.1185047356     3     5     1     6
 0.1716606488     3     5     2     4
 0.0886493537     3     5     4     2
 -0.0872851890     3     5     4     3
 0.0872851890     3     5     5     2
 -0.2914772176     3     5     5     3
 -0.1216769393     3     5     6     1
 -0.1186996283     3     6     1     4
 0.1185047356     3     6     1     5
 -0.0013369286     3     6     4     1
 0.0013347334     3     6     5     1
 -0.3894061643     3     6     6     3
 -0.3798111642     4     1     1     4
 0.0013347334     4     1     2     6
 -0.0013369286     4     1     3     6
 0.1185047356     4     1     6     2
 -0.1186996283     4     1     6     3
 -0.1216769392     4     2     1     6
 -0.2914772176     4     2     2     4
 0.0872851890     4     2     2     5
 -0.0872851890     4     2     3     4
 0.0886493537     4     2     3     5
 0.1716606488     4     2     5     3
 -0.1185047356     4     2     6     1
 0.1218770490     4     3     1     6
 -0.0872851890     4     3     2     4
 -0.0889362163     4     3     2     5
 -0.2911903551     4     3     3     4
 -0.0872851890     4     3     3     5
 -0.1716606488     4     3     5     2
 0.1186996283     4     3     6     1
 0.3798111642     4     4     1     1
 0.2914772176     4     4     2     2
 0.0872851890     4     4     2     3
 0.0872851890     4     4     3     2
 0.2911903551     4     4     3     3
 0.3723534014     4     4     5     5
 0.3808266669     4     4     6     6
 -0.0872851890     4     5     2     2
 0.0889362163     4     5     2     3
 -0.0886493537     4     5     3     2
 0.0872851890     4     5     3     3
 -0.3723534014     4     5     5     4
 0.1216769392     4     6     1     2
 -0.1218770490     4     6     1     3
 -0.0013347334     4     6     2     1
 0.0013369286     4     6     3     1
 -0.3808266669     4     6     6     4
 -0.3798111642     5     1     1     5
 0.0013369286     5     1     2     6
 0.0013347334     5     1     3     6
 0.1186996283     5     1     6     2
 0.1185047356     5     1     6     3
 -0.1218770490     5     2     1     6
 0.0872851890     5     2     2     4
 -0.2911903550     5     2     2     5
 -0.0889362163     5     2     3     4
 0.0872851890     5     2     3     5
 -0.1716606488     5     2     4     3
 -0.1186996283     5     2     6     1
 -0.1216769393     5     3     1     6
 0.0886493537     5     3     2     4
 0.0872851890     5     3     2     5
 -0.0872851890     5     3     3     4
 -0.2914772176     5     3     3     5
 0.1716606488     5     3     4     2
 -0.1185047356     5     3     6     1
 -0.0872851890     5     4     2     2
 -0.0886493537     5     4     2     3
 0.0889362163     5     4     3     2
 0.0872851890     5     4     3     3
 -0.3723534014     5     4     4     5
 0.3798111642     5     5     1     1
 0.2911903550     5     5     2     2
 -0.0872851890     5     5     2     3
 -0.0872851890     5     5     3     2
 0.2914772176     5     5     3     3
 0.3723534014     5     5     4     4
 0.3808266669     5     5     6     6
 0.1218770490     5     6     1     2
 0.1216769393     5     6     1     3
 -0.0013369286     5     6     2     1
 -0.0013347334     5     6     3     1
 -0.3808266669     5     6     6     5
 -0.2240856414     6     1     1     6
 -0.1216769393     6     1     2     4
 -0.1218770490     6     1     2     5
 0.1218770490     6     1     3     4
 -0.1216769392     6     1     3     5
 -0.1185047356     6     1     4     2
 0.1186996284     6     1     4     3
 -0.1186996283     6     1     5     2
 -0.1185047356     6     1     5     3
 0.0013347334     6     2     1     4
 0.0013369286     6     2     1     5
 -0.3894061643     6     2     2     6
 0.1185047356     6     2     4     1
 0.1186996283     6     2     5     1
 -0.0013369286     6     3     1     4
 0.0013347334     6     3     1     5
 -0.3894061643     6     3     3     6
 -0.1186996284     6     3     4     1
 0.1185047356     6     3     5     1
 -0.0013347334     6     4     1     2
 0.0013369286     6     4     1     3
 0.1216769393     6     4     2     1
 -0.1218770490     6     4     3     1
 -0.3808266669     6     4     4     6
 -0.0013369286     6     5     1     2
 -0.0013347334     6     5     1     3
 0.1218770490     6     5     2     1
 0.1216769392     6     5     3     1
 -0.3808266669     6     5     5     6
 0.2240856414     6     6     1     1
 0.3894061643     6     6     2     2
 0.3894061643     6     6     3     3
 0.3808266669     6     6     4     4
 0.3808266669     6     6     5     5
0.0 0 0 0 0
 0.3929042661     1     1     2     2
 0.3929042661     1     1     3     3
 0.3798111642     1     1     4     4
 0.3798111642     1     1     5     5
 0.2240856414     1     1     6     6
 -0.3929042661     1     2     2     1
 0.1216769393     1     2     4     6
 0.1218770490     1     2     5     6
 -0.0013347334     1     2     6     4
 -0.0013369286     1     2     6     5
 -0.3929042661     1     3     3     1
 -0.1218770490     1     3     4     6
 0.1216769392     1     3     5     6
 0.0013369286     1     3     6     4
 -0.0013347334     1     3     6     5
 0.1185047356     1     4     2     6
 -0.1186996284     1     4     3     6
 -0.3798111642     1     4     4     1
 0.0013347334     1     4     6     2
 -0.0013369286     1     4     6     3
 0.1186996283     1     5     2     6
 0.1185047356     1     5     3     6
 -0.3798111642     1     5     5     1
 0.0013369286     1     5     6     2
 0.0013347334     1     5     6     3
 -0.1185047356     1     6     2     4
 -0.1186996283     1     6     2     5
 0.1186996284     1     6     3     4
 -0.1185047356     1     6     3     5
 -0.1216769393     1     6     4     2
 0.1218770490     1     6     4     3
 -0.1218770490     1     6     5     2
 -0.1216769392     1     6     5     3
 -0.2240856414     1     6     6     1
 -0.3929042661     2     1     1     2
 -0.0013347334     2     1     4     6
 -0.0013369286     2     1     5     6
 0.1216769392     2     1     6     4
 0.1218770490     2     1     6     5
 0.3929042661     2     2     1     1
 0.3938971612     2     2     3     3
 0.2914772176     2     2     4     4
 -0.0872851890     2     2     4     5
 -0.0872851890     2     2     5     4
 0.2911903550     2     2     5     5
 0.3894061643     2     2     6     6
 -0.3938971612     2     3     3     2
 0.0872851890     2     3     4     4
 0.0889362163     2     3     4     5
 -0.0886493537     2     3     5     4
 -0.0872851890     2     3     5     5
 -0.1185047356     2     4     1     6
 0.1716606488     2     4     3     5
 -0.2914772176     2     4     4     2
 -0.0872851890     2     4     4     3
 0.0872851890     2     4     5     2
 0.0886493537     2     4     5     3
 -0.1216769392     2     4     6     1
 -0.1186996283     2     5     1     6
 -0.1716606488     2     5     3     4
 0.0872851890     2     5     4     2
 -0.0889362163     2     5     4     3
 -0.2911903550     2     5     5     2
 0.0872851890     2     5     5     3
 -0.1218770490     2     5     6     1
 0.1185047356     2     6     1     4
 0.1186996283     2     6     1     5
 0.0013347334     2     6     4     1
 0.0013369286     2     6     5     1
 -0.3894061643     2     6     6     2
 -0.3929042661     3     1     1     3
 0.0013369286     3     1     4     6
 -0.0013347334     3     1     5     6
 -0.1218770490     3     1     6     4
 0.1216769393     3     1     6     5
 -0.3938971612     3     2     2     3
 0.0872851890     3     2     4     4
 -0.0886493537     3     2     4     5
 0.0889362163     3     2     5     4
 -0.0872851890     3     2     5     5
 0.3929042661     3     3     1     1
 0.3938971612     3     3     2     2
 0.2911903551     3     3     4     4
 0.0872851890     3     3     4     5
 0.0872851890     3     3     5     4
 0.2914772176     3     3     5     5
 0.3894061643     3     3     6     6
 0.1186996283     3     4     1     6
 -0.1716606488     3     4     2     5
 -0.0872851890     3     4     4     2
 -0.2911903551     3     4     4     3
 -0.0889362163     3     4     5     2
 -0.0872851890     3     4     5     3
 0.1218770490     3     4     6     1
 -0.1185047356     3     5     1     6
 0.1716606488     3     5     2     4
 0.0886493537     3     5     4     2
 -0.0872851890     3     5     4     3
 0.0872851890     3     5     5     2
 -0.2914772176     3     5     5     3
 -0.1216769393     3     5     6     1
 -0.1186996283     3     6     1     4
 0.1185047356     3     6     1     5
 -0.0013369286     3     6     4     1
 0.0013347334     3     6     5     1
 -0.3894061643     3     6     6     3
 -0.3798111642     4     1     1     4
 0.0013347334     4     1     2     6
 -0.0013369286     4     1     3     6
 0.1185047356     4     1     6     2
 -0.1186996283     4     1     6     3
 -0.1216769392     4     2     1     6
 -0.2914772176     4     2     2     4
 0.0872851890     4     2     2     5
 -0.0872851890     4     2     3     4
 0.0886493537     4     2     3     5
 0.1716606488     4     2     5     3
 -0.1185047356     4     2     6     1
 0.1218770490     4     3     1     6
 -0.0872851890     4     3     2     4
 -0.0889362163     4     3     2     5
 -0.2911903551     4     3     3     4
 -0.0872851890     4     3     3     5
 -0.1716606488     4     3     5     2
 0.1186996283     4     3     6     1
 0.3798111642     4     4     1     1
 0.2914772176     4     4     2     2
 0.0872851890     4     4     2     3
 0.0872851890     4     4     3     2
 0.2911903551     4     4     3     3
 0.3723534014     4     4     5     5
 0.3808266669     4     4     6     6
 -0.0872851890     4     5     2     2
 0.0889362163     4     5     2     3
 -0.0886493537     4     5     3     2
 0.0872851890     4     5     3     3
 -0.3723534014     4     5     5     4
 0.1216769392     4     6     1     2
 -0.1218770490     4     6     1     3
 -0.0013347334     4     6     2     1
 0.0013369286     4     6     3     1
 -0.3808266669     4     6     6     4
 -0.3798111642     5     1     1     5
 0.0013369286     5     1     2     6
 0.0013347334     5     1     3     6
 0.1186996283     5     1     6     2
 0.1185047356     5     1     6     3
 -0.1218770490     5     2     1     6
 0.0872851890     5     2     2     4
 -0.2911903550     5     2     2     5
 -0.0889362163     5     2     3     4
 0.0872851890     5     2     3     5
 -0.1716606488     5     2     4     3
 -0.1186996283     5     2     6     1
 -0.1216769393     5     3     1     6
 0.0886493537     5     3     2     4
 0.0872851890     5     3     2     5
 -0.0872851890     5     3     3     4
 -0.2914772176     5     3     3     5
 0.1716606488     5     3     4     2
 -0.1185047356     5     3     6     1
 -0.0872851890     5     4     2     2
 -0.0886493537     5     4     2     3
 0.0889362163     5     4     3     2
 0.0872851890     5     4     3     3
 -0.3723534014     5     4     4     5
 0.3798111642     5     5     1     1
 0.2911903550     5     5     2     2
 -0.0872851890     5     5     2     3
 -0.0872851890     5     5     3     2
 0.2914772176     5     5     3     3
 0.3723534014     5     5     4     4
 0.3808266669     5     5     6     6
 0.1218770490     5     6     1     2
 0.1216769393     5     6     1     3
 -0.0013369286     5     6     2     1
 -0.0013347334     5     6     3     1
 -0.3808266669     5     6     6     5
 -0.2240856414     6     1     1     6
 -0.1216769393     6     1     2     4
 -0.1218770490     6     1     2     5
 0.1218770490     6     1     3     4
 -0.1216769392     6     1     3     5
 -0.1185047356     6     1     4     2
 0.1186996284     6     1     4     3
 -0.1186996283     6     1     5     2
 -0.1185047356     6     1     5     3
 0.0013347334     6     2     1     4
 0.0013369286     6     2     1     5
 -0.3894061643     6     2     2     6
 0.1185047356     6     2     4     1
 0.1186996283     6     2     5     1
 -0.0013369286     6     3     1     4
 0.0013347334     6     3     1     5
 -0.3894061643     6     3     3     6
 -0.1186996284     6     3     4     1
 0.1185047356     6     3     5     1
 -0.0013347334     6     4     1     2
 0.0013369286     6     4     1     3
 0.1216769393     6     4     2     1
 -0.1218770490     6     4     3     1
 -0.3808266669     6     4     4     6
 -0.0013369286     6     5     1     2
 -0.0013347334     6     5     1     3
 0.1218770490     6     5     2     1
 0.1216769392     6     5     3     1
 -0.3808266669     6     5     5     6
 0.2240856414     6     6     1     1
 0.3894061643     6     6     2     2
 0.3894061643     6     6     3     3
 0.3808266669     6     6     4     4
 0.3808266669     6     6     5     5
0.0 0 0 0 0
 0.4275428409     1     1     1     1
 0.4015490767     1     1     2     2
 0.4015490767     1     1     3     3
 0.4052905311     1     1     4     4
 0.4052905311     1     1     5     5
 0.4529738035     1     1     6     6
 0.0139499609     1     2     1     2
 0.0086448106     1     2     2     1
 -0.0127702886     1     2     4     6
 -0.0127912906     1     2     5     6
 -0.0144249083     1     2     6     4
 -0.0144486315     1     2     6     5
 0.0139499609     1     3     1     3
 0.0086448106     1     3     3     1
 0.0127912906     1     3     4     6
 -0.0127702886     1     3     5     6
 0.0144486315     1     3     6     4
 -0.0144249083     1     3     6     5
 0.0217479317     1     4     1     4
 -0.0167437849     1     4     2     6
 0.0167713217     1     4     3     6
 0.0254793669     1     4     4     1
 -0.0130901749     1     4     6     2
 0.0131117029     1     4     6     3
 0.0217479317     1     5     1     5
 -0.0167713217     1     5     2     6
 -0.0167437849     1     5     3     6
 0.0254793669     1     5     5     1
 -0.0131117029     1     5     6     2
 -0.0130901749     1     5     6     3
 0.2302393361     1     6     1     6
 -0.1352485205     1     6     2     4
 -0.1354709500     1     6     2     5
 0.1354709501     1     6     3     4
 -0.1352485205     1     6     3     5
 -0.1344472279     1     6     4     2
 0.1346683396     1     6     4     3
 -0.1346683396     1     6     5     2
 -0.1344472278     1     6     5     3
 0.2288881621     1     6     6     1
 0.0086448106     2     1     1     2
 0.0139499609     2     1     2     1
 -0.0144249083     2     1     4     6
 -0.0144486315     2     1     5     6
 -0.0127702886     2     1     6     4
 -0.0127912906     2     1     6     5
 0.4015490767     2     2     1     1
 0.4210302148     2     2     2     2
 0.4005287720     2     2     3     3
 0.4257406565     2     2     4     4
 0.0196249666     2     2     4     5
 0.0196249666     2     2     5     4
 0.4258051539     2     2     5     5
 0.4162012303     2     2     6     6
 0.0138698320     2     3     2     3
 0.0066316108     2     3     3     2
 -0.0196249666     2     3     4     4
 0.0009752536     2     3     4     5
 -0.0010397510     2     3     5     4
 0.0196249666     2     3     5     5
 -0.1352485205     2     4     1     6
 0.1339419696     2     4     2     4
 0.1109901675     2     4     2     5
 -0.1109901675     2     4     3     4
 0.0856479399     2     4     3     5
 0.1342634389     2     4     4     2
 -0.1069101556     2     4     4     3
 0.1069101556     2     4     5     2
 0.0876096027     2     4     5     3
 -0.1344472278     2     4     6     1
 -0.1354709500     2     5     1     6
 0.1109901675     2     5     2     4
 0.1343067386     2     5     2     5
 -0.0860127089     2     5     3     4
 0.1109901675     2     5     3     5
 0.1069101556     2     5     4     2
 -0.0879609627     2     5     4     3
 0.1346147989     2     5     5     2
 0.1069101556     2     5     5     3
 -0.1346683396     2     5     6     1
 -0.0167437849     2     6     1     4
 -0.0167713217     2     6     1     5
 0.0227710839     2     6     2     6
 -0.0130901749     2     6     4     1
 -0.0131117029     2     6     5     1
 0.0267950660     2     6     6     2
 0.0086448106     3     1     1     3
 0.0139499609     3     1     3     1
 0.0144486315     3     1     4     6
 -0.0144249083     3     1     5     6
 0.0127912906     3     1     6     4
 -0.0127702886     3     1     6     5
 0.0066316108     3     2     2     3
 0.0138698320     3     2     3     2
 -0.0196249666     3     2     4     4
 -0.0010397510     3     2     4     5
 0.0009752536     3     2     5     4
 0.0196249666     3     2     5     5
 0.4015490767     3     3     1     1
 0.4005287720     3     3     2     2
 0.4210302148     3     3     3     3
 0.4258051540     3     3     4     4
 -0.0196249666     3     3     4     5
 -0.0196249666     3     3     5     4
 0.4257406565     3     3     5     5
 0.4162012303     3     3     6     6
 0.1354709500     3     4     1     6
 -0.1109901675     3     4     2     4
 -0.0860127089     3     4     2     5
 0.1343067386     3     4     3     4
 -0.1109901675     3     4     3     5
 -0.1069101556     3     4     4     2
 0.1346147989     3     4     4     3
 -0.0879609627     3     4     5     2
 -0.1069101556     3     4     5     3
 0.1346683396     3     4     6     1
 -0.1352485205     3     5     1     6
 0.0856479399     3     5     2     4
 0.1109901675     3     5     2     5
 -0.1109901675     3     5     3     4
 0.1339419696     3     5     3     5
 0.0876096027     3     5     4     2
 -0.1069101556     3     5     4     3
 0.1069101556     3     5     5     2
 0.1342634389     3     5     5     3
 -0.1344472279     3     5     6     1
 0.0167713217     3     6     1     4
 -0.0167437849     3     6     1     5
 0.0227710839     3     6     3     6
 0.0131117029     3     6     4     1
 -0.0130901749     3     6     5     1
 0.0267950660     3     6     6     3
 0.0254793669     4     1     1     4
 -0.0130901749     4     1     2     6
 0.0131117029     4     1     3     6
 0.0217479317     4     1     4     1
 -0.0167437849     4     1     6     2
 0.0167713217     4     1     6     3
 -0.1344472278     4     2     1     6
 0.1342634389     4     2     2     4
 0.1069101556     4     2     2     5
 -0.1069101556     4     2     3     4
 0.0876096027     4     2     3     5
 0.1339419696     4     2     4     2
 -0.1109901675     4     2     4     3
 0.1109901675     4     2     5     2
 0.0856479399     4     2     5     3
 -0.1352485205     4     2     6     1
 0.1346683396     4     3     1     6
 -0.1069101556     4     3     2     4
 -0.0879609627     4     3     2     5
 0.1346147989     4     3     3     4
 -0.1069101556     4     3     3     5
 -0.1109901675     4     3     4     2
 0.1343067386     4     3     4     3
 -0.0860127089     4     3     5     2
 -0.1109901675     4     3     5     3
 0.1354709500     4     3     6     1
 0.4052905311     4     4     1     1
 0.4257406565     4     4     2     2
 -0.0196249666     4     4     2     3
 -0.0196249666     4     4     3     2
 0.4258051540     4     4     3     3
 0.4155049405     4     4     4     4
 0.3868497893     4     4     5     5
 0.3962712390     4     4     6     6
 0.0196249666     4     5     2     2
 0.0009752536     4     5     2     3
 -0.0010397510     4     5     3     2
 -0.0196249666     4     5     3     3
 0.0141587633     4     5     4     5
 0.0144963879     4     5     5     4
 -0.0127702886     4     6     1     2
 0.0127912906     4     6     1     3
 -0.0144249083     4     6     2     1
 0.0144486315     4     6     3     1
 0.0142037231     4     6     4     6
 0.0154445721     4     6     6     4
 0.0254793669     5     1     1     5
 -0.0131117029     5     1     2     6
 -0.0130901749     5     1     3     6
 0.0217479317     5     1     5     1
 -0.0167713217     5     1     6     2
 -0.0167437849     5     1     6     3
 -0.1346683396     5     2     1     6
 0.1069101556     5     2     2     4
 0.1346147989     5     2     2     5
 -0.0879609627     5     2     3     4
 0.1069101556     5     2     3     5
 0.1109901675     5     2     4     2
 -0.0860127089     5     2     4     3
 0.1343067386     5     2     5     2
 0.1109901675     5     2     5     3
 -0.1354709500     5     2     6     1
 -0.1344472279     5     3     1     6
 0.0876096027     5     3     2     4
 0.1069101556     5     3     2     5
 -0.1069101556     5     3     3     4
 0.1342634389     5     3     3     5
 0.0856479399     5     3     4     2
 -0.1109901675     5     3     4     3
 0.1109901675     5     3     5     2
 0.1339419696     5     3     5     3
 -0.1352485205     5     3     6     1
 0.0196249666     5     4     2     2
 -0.0010397510     5     4     2     3
 0.0009752536     5     4     3     2
 -0.0196249666     5     4     3     3
 0.0144963879     5     4     4     5
 0.0141587633     5     4     5     4
 0.4052905311     5     5     1     1
 0.4258051539     5     5     2     2
 0.0196249666     5     5     2     3
 0.0196249666     5     5     3     2
 0.4257406565     5     5     3     3
 0.3868497893     5     5     4     4
 0.4155049405     5     5     5     5
 0.3962712390     5     5     6     6
 -0.0127912906     5     6     1     2
 -0.0127702886     5     6     1     3
 -0.0144486315     5     6     2     1
 -0.0144249083     5     6     3     1
 0.0142037231     5     6     5     6
 0.0154445721     5     6     6     5
 0.2288881621     6     1     1     6
 -0.1344472279     6     1     2     4
 -0.1346683396     6     1     2     5
 0.1346683396     6     1     3     4
 -0.1344472278     6     1     3     5
 -0.1352485205     6     1     4     2
 0.1354709501     6     1     4     3
 -0.1354709500     6     1     5     2
 -0.1352485205     6     1     5     3
 0.2302393361     6     1     6     1
 -0.0130901749     6     2     1     4
 -0.0131117029     6     2     1     5
 0.0267950660     6     2     2     6
 -0.0167437849     6     2     4     1
 -0.0167713217     6     2     5     1
 0.0227710839     6     2     6     2
 0.0131117029     6     3     1     4
 -0.0130901749     6     3     1     5
 0.0267950660     6     3     3     6
 0.0167713217     6     3     4     1
 -0.0167437849     6     3     5     1
 0.0227710839     6     3     6     3
 -0.0144249083     6     4     1     2
 0.0144486315     6     4     1     3
 -0.0127702886     6     4     2     1
 0.0127912906     6     4     3     1
 0.0154445721     6     4     4     6
 0.0142037231     6     4     6     4
 -0.0144486315     6     5     1     2
 -0.0144249083     6     5     1     3
 -0.0127912906     6     5     2     1
 -0.0127702886     6     5     3     1
 0.0154445721     6     5     5     6
 0.0142037231     6     5     6     5
 0.4529738035     6     6     1     1
 0.4162012303     6     6     2     2
 0.4162012303     6     6     3     3
 0.3962712390     6     6     4     4
 0.3962712390     6     6     5     5
 0.4359255314     6     6     6     6
0.0 0 0 0 0
 -2.3871461168     1     1     0     0
 -2.3490857177     2     2     0     0
 -2.3490857177     3     3     0     0
 -2.2744015697     4     4     0     0
 -2.2744015697     5     5     0     0
 -2.2929570292     6     6     0     0
0.0 0 0 0 0
 -2.3871461168     1     1     0     0
 -2.3490857177     2     2     0     0
 -2.3490857177     3     3     0     0
 -2.2744015697     4     4     0     0
 -2.2744015697     5     5     0     0
 -2.2929570292     6     6     0     0
-100.1851686837 0 0 0 0
