&FCI NORB=  6,NELEC=  6,MS2=0,
 ORBSYM=1,1,1,1,1,1
 ISYM=1,
&END
 0.4387002232     1     1     2     2
 0.4387002232     1     1     3     3
 0.4326343416     1     1     4     4
 0.4326343416     1     1     5     5
 0.3554007188     1     1     6     6
 -0.4387002232     1     2     2     1
 0.0864617349     1     2     4     6
 0.0503019998     1     2     5     6
 -0.0039594988     1     2     6     4
 -0.0023035706     1     2     6     5
 -0.4387002232     1     3     3     1
 -0.0503019998     1     3     4     6
 0.0864617349     1     3     5     6
 0.0023035706     1     3     6     4
 -0.0039594988     1     3     6     5
 0.0854933583     1     4     2     6
 -0.0497386145     1     4     3     6
 -0.4326343416     1     4     4     1
 0.0039594988     1     4     6     2
 -0.0023035706     1     4     6     3
 0.0497386145     1     5     2     6
 0.0854933583     1     5     3     6
 -0.4326343416     1     5     5     1
 0.0023035706     1     5     6     2
 0.0039594988     1     5     6     3
 -0.0854933583     1     6     2     4
 -0.0497386145     1     6     2     5
 0.0497386145     1     6     3     4
 -0.0854933583     1     6     3     5
 -0.0864617349     1     6     4     2
 0.0503019998     1     6     4     3
 -0.0503019998     1     6     5     2
 -0.0864617349     1     6     5     3
 -0.3554007188     1     6     6     1
 -0.4387002232     2     1     1     2
 -0.0039594988     2     1     4     6
 -0.0023035706     2     1     5     6
 0.0864617349     2     1     6     4
 0.0503019998     2     1     6     5
 0.4387002232     2     2     1     1
 0.4342774023     2     2     3     3
 0.3373902827     2     2     4     4
 -0.0505022603     2     2     4     5
 -0.0505022603     2     2     5     4
 0.3948148606     2     2     5     5
 0.4253414569     2     2     6     6
 -0.4342774023     2     3     3     2
 0.0505022603     2     3     4     4
 0.0319584837     2     3     4     5
 -0.0893830616     2     3     5     4
 -0.0505022603     2     3     5     5
 -0.0854933583     2     4     1     6
 0.1146087735     2     4     3     5
 -0.3373902827     2     4     4     2
 -0.0505022603     2     4     4     3
 0.0505022603     2     4     5     2
 0.0893830616     2     4     5     3
 -0.0864617349     2     4     6     1
 -0.0497386145     2     5     1     6
 -0.1146087735     2     5     3     4
 0.0505022603     2     5     4     2
 -0.0319584837     2     5     4     3
 -0.3948148606     2     5     5     2
 0.0505022603     2     5     5     3
 -0.0503019998     2     5     6     1
 0.0854933583     2     6     1     4
 0.0497386145     2     6     1     5
 0.0039594988     2     6     4     1
 0.0023035706     2     6     5     1
 -0.4253414569     2     6     6     2
 -0.4387002232     3     1     1     3
 0.0023035706     3     1     4     6
 -0.0039594988     3     1     5     6
 -0.0503019998     3     1     6     4
 0.0864617349     3     1     6     5
 -0.4342774023     3     2     2     3
 0.0505022603     3     2     4     4
 -0.0893830616     3     2     4     5
 0.0319584837     3     2     5     4
 -0.0505022603     3     2     5     5
 0.4387002232     3     3     1     1
 0.4342774023     3     3     2     2
 0.3948148606     3     3     4     4
 0.0505022603     3     3     4     5
 0.0505022603     3     3     5     4
 0.3373902827     3     3     5     5
 0.4253414569     3     3     6     6
 0.0497386145     3     4     1     6
 -0.1146087735     3     4     2     5
 -0.0505022603     3     4     4     2
 -0.3948148606     3     4     4     3
 -0.0319584837     3     4     5     2
 -0.0505022603     3     4     5     3
 0.0503019998     3     4     6     1
 -0.0854933583     3     5     1     6
 0.1146087735     3     5     2     4
 0.0893830616     3     5     4     2
 -0.0505022603     3     5     4     3
 0.0505022603     3     5     5     2
 -0.3373902827     3     5     5     3
 -0.0864617349     3     5     6     1
 -0.0497386145     3     6     1     4
 0.0854933583     3     6     1     5
 -0.0023035706     3     6     4     1
 0.0039594988     3     6     5     1
 -0.4253414569     3     6     6     3
 -0.4326343416     4     1     1     4
 0.0039594988     4     1     2     6
 -0.0023035706     4     1     3     6
 0.0854933583     4     1     6     2
 -0.0497386145     4     1     6     3
 -0.0864617349     4     2     1     6
 -0.3373902827     4     2     2     4
 0.0505022603     4     2     2     5
 -0.0505022603     4     2     3     4
 0.0893830616     4     2     3     5
 0.1146087735     4     2     5     3
 -0.0854933583     4     2     6     1
 0.0503019998     4     3     1     6
 -0.0505022603     4     3     2     4
 -0.0319584837     4     3     2     5
 -0.3948148606     4     3     3     4
 -0.0505022603     4     3     3     5
 -0.1146087735     4     3     5     2
 0.0497386145     4     3     6     1
 0.4326343416     4     4     1     1
 0.3373902827     4     4     2     2
 0.0505022603     4     4     2     3
 0.0505022603     4     4     3     2
 0.3948148606     4     4     3     3
 0.4142546948     4     4     5     5
 0.4103176031     4     4     6     6
 -0.0505022603     4     5     2     2
 0.0319584837     4     5     2     3
 -0.0893830616     4     5     3     2
 0.0505022603     4     5     3     3
 -0.4142546948     4     5     5     4
 0.0864617349     4     6     1     2
 -0.0503019998     4     6     1     3
 -0.0039594988     4     6     2     1
 0.0023035706     4     6     3     1
 -0.4103176031     4     6     6     4
 -0.4326343416     5     1     1     5
 0.0023035706     5     1     2     6
 0.0039594988     5     1     3     6
 0.0497386145     5     1     6     2
 0.0854933583     5     1     6     3
 -0.0503019998     5     2     1     6
 0.0505022603     5     2     2     4
 -0.3948148606     5     2     2     5
 -0.0319584837     5     2     3     4
 0.0505022603     5     2     3     5
 -0.1146087735     5     2     4     3
 -0.0497386145     5     2     6     1
 -0.0864617349     5     3     1     6
 0.0893830616     5     3     2     4
 0.0505022603     5     3     2     5
 -0.0505022603     5     3     3     4
 -0.3373902827     5     3     3     5
 0.1146087735     5     3     4     2
 -0.0854933583     5     3     6     1
 -0.0505022603     5     4     2     2
 -0.0893830616     5     4     2     3
 0.0319584837     5     4     3     2
 0.0505022603     5     4     3     3
 -0.4142546948     5     4     4     5
 0.4326343416     5     5     1     1
 0.3948148606     5     5     2     2
 -0.0505022603     5     5     2     3
 -0.0505022603     5     5     3     2
 0.3373902827     5     5     3     3
 0.4142546948     5     5     4     4
 0.4103176031     5     5     6     6
 0.0503019998     5     6     1     2
 0.0864617349     5     6     1     3
 -0.0023035706     5     6     2     1
 -0.0039594988     5     6     3     1
 -0.4103176031     5     6     6     5
 -0.3554007188     6     1     1     6
 -0.0864617349     6     1     2     4
 -0.0503019998     6     1     2     5
 0.0503019998     6     1     3     4
 -0.0864617349     6     1     3     5
 -0.0854933583     6     1     4     2
 0.0497386145     6     1     4     3
 -0.0497386145     6     1     5     2
 -0.0854933583     6     1     5     3
 0.0039594988     6     2     1     4
 0.0023035706     6     2     1     5
 -0.4253414569     6     2     2     6
 0.0854933583     6     2     4     1
 0.0497386145     6     2     5     1
 -0.0023035706     6     3     1     4
 0.0039594988     6     3     1     5
 -0.4253414569     6     3     3     6
 -0.0497386145     6     3     4     1
 0.0854933583     6     3     5     1
 -0.0039594988     6     4     1     2
 0.0023035706     6     4     1     3
 0.0864617349     6     4     2     1
 -0.0503019998     6     4     3     1
 -0.4103176031     6     4     4     6
 -0.0023035706     6     5     1     2
 -0.0039594988     6     5     1     3
 0.0503019998     6     5     2     1
 0.0864617349     6     5     3     1
 -0.4103176031     6     5     5     6
 0.3554007188     6     6     1     1
 0.4253414569     6     6     2     2
 0.4253414569     6     6     3     3
 0.4103176031     6     6     4     4
 0.4103176031     6     6     5     5
0.0 0 0 0 0
 0.4387002232     1     1     2     2
 0.4387002232     1     1     3     3
 0.4326343416     1     1     4     4
 0.4326343416     1     1     5     5
 0.3554007188     1     1     6     6
 -0.4387002232     1     2     2     1
 0.0864617349     1     2     4     6
 0.0503019998     1     2     5     6
 -0.0039594988     1     2     6     4
 -0.0023035706     1     2     6     5
 -0.4387002232     1     3     3     1
 -0.0503019998     1     3     4     6
 0.0864617349     1     3     5     6
 0.0023035706     1     3     6     4
 -0.0039594988     1     3     6     5
 0.0854933583     1     4     2     6
 -0.0497386145     1     4     3     6
 -0.4326343416     1     4     4     1
 0.0039594988     1     4     6     2
 -0.0023035706     1     4     6     3
 0.0497386145     1     5     2     6
 0.0854933583     1     5     3     6
 -0.4326343416     1     5     5     1
 0.0023035706     1     5     6     2
 0.0039594988     1     5     6     3
 -0.0854933583     1     6     2     4
 -0.0497386145     1     6     2     5
 0.0497386145     1     6     3     4
 -0.0854933583     1     6     3     5
 -0.0864617349     1     6     4     2
 0.0503019998     1     6     4     3
 -0.0503019998     1     6     5     2
 -0.0864617349     1     6     5     3
 -0.3554007188     1     6     6     1
 -0.4387002232     2     1     1     2
 -0.0039594988     2     1     4     6
 -0.0023035706     2     1     5     6
 0.0864617349     2     1     6     4
 0.0503019998     2     1     6     5
 0.4387002232     2     2     1     1
 0.4342774023     2     2     3     3
 0.3373902827     2     2     4     4
 -0.0505022603     2     2     4     5
 -0.0505022603     2     2     5     4
 0.3948148606     2     2     5     5
 0.4253414569     2     2     6     6
 -0.4342774023     2     3     3     2
 0.0505022603     2     3     4     4
 0.0319584837     2     3     4     5
 -0.0893830616     2     3     5     4
 -0.0505022603     2     3     5     5
 -0.0854933583     2     4     1     6
 0.1146087735     2     4     3     5
 -0.3373902827     2     4     4     2
 -0.0505022603     2     4     4     3
 0.0505022603     2     4     5     2
 0.0893830616     2     4     5     3
 -0.0864617349     2     4     6     1
 -0.0497386145     2     5     1     6
 -0.1146087735     2     5     3     4
 0.0505022603     2     5     4     2
 -0.0319584837     2     5     4     3
 -0.3948148606     2     5     5     2
 0.0505022603     2     5     5     3
 -0.0503019998     2     5     6     1
 0.0854933583     2     6     1     4
 0.0497386145     2     6     1     5
 0.0039594988     2     6     4     1
 0.0023035706     2     6     5     1
 -0.4253414569     2     6     6     2
 -0.4387002232     3     1     1     3
 0.0023035706     3     1     4     6
 -0.0039594988     3     1     5     6
 -0.0503019998     3     1     6     4
 0.0864617349     3     1     6     5
 -0.4342774023     3     2     2     3
 0.0505022603     3     2     4     4
 -0.0893830616     3     2     4     5
 0.0319584837     3     2     5     4
 -0.0505022603     3     2     5     5
 0.4387002232     3     3     1     1
 0.4342774023     3     3     2     2
 0.3948148606     3     3     4     4
 0.0505022603     3     3     4     5
 0.0505022603     3     3     5     4
 0.3373902827     3     3     5     5
 0.4253414569     3     3     6     6
 0.0497386145     3     4     1     6
 -0.1146087735     3     4     2     5
 -0.0505022603     3     4     4     2
 -0.3948148606     3     4     4     3
 -0.0319584837     3     4     5     2
 -0.0505022603     3     4     5     3
 0.0503019998     3     4     6     1
 -0.0854933583     3     5     1     6
 0.1146087735     3     5     2     4
 0.0893830616     3     5     4     2
 -0.0505022603     3     5     4     3
 0.0505022603     3     5     5     2
 -0.3373902827     3     5     5     3
 -0.0864617349     3     5     6     1
 -0.0497386145     3     6     1     4
 0.0854933583     3     6     1     5
 -0.0023035706     3     6     4     1
 0.0039594988     3     6     5     1
 -0.4253414569     3     6     6     3
 -0.4326343416     4     1     1     4
 0.0039594988     4     1     2     6
 -0.0023035706     4     1     3     6
 0.0854933583     4     1     6     2
 -0.0497386145     4     1     6     3
 -0.0864617349     4     2     1     6
 -0.3373902827     4     2     2     4
 0.0505022603     4     2     2     5
 -0.0505022603     4     2     3     4
 0.0893830616     4     2     3     5
 0.1146087735     4     2     5     3
 -0.0854933583     4     2     6     1
 0.0503019998     4     3     1     6
 -0.0505022603     4     3     2     4
 -0.0319584837     4     3     2     5
 -0.3948148606     4     3     3     4
 -0.0505022603     4     3     3     5
 -0.1146087735     4     3     5     2
 0.0497386145     4     3     6     1
 0.4326343416     4     4     1     1
 0.3373902827     4     4     2     2
 0.0505022603     4     4     2     3
 0.0505022603     4     4     3     2
 0.3948148606     4     4     3     3
 0.4142546948     4     4     5     5
 0.4103176031     4     4     6     6
 -0.0505022603     4     5     2     2
 0.0319584837     4     5     2     3
 -0.0893830616     4     5     3     2
 0.0505022603     4     5     3     3
 -0.4142546948     4     5     5     4
 0.0864617349     4     6     1     2
 -0.0503019998     4     6     1     3
 -0.0039594988     4     6     2     1
 0.0023035706     4     6     3     1
 -0.4103176031     4     6     6     4
 -0.4326343416     5     1     1     5
 0.0023035706     5     1     2     6
 0.0039594988     5     1     3     6
 0.0497386145     5     1     6     2
 0.0854933583     5     1     6     3
 -0.0503019998     5     2     1     6
 0.0505022603     5     2     2     4
 -0.3948148606     5     2     2     5
 -0.0319584837     5     2     3     4
 0.0505022603     5     2     3     5
 -0.1146087735     5     2     4     3
 -0.0497386145     5     2     6     1
 -0.0864617349     5     3     1     6
 0.0893830616     5     3     2     4
 0.0505022603     5     3     2     5
 -0.0505022603     5     3     3     4
 -0.3373902827     5     3     3     5
 0.1146087735     5     3     4     2
 -0.0854933583     5     3     6     1
 -0.0505022603     5     4     2     2
 -0.0893830616     5     4     2     3
 0.0319584837     5     4     3     2
 0.0505022603     5     4     3     3
 -0.4142546948     5     4     4     5
 0.4326343416     5     5     1     1
 0.3948148606     5     5     2     2
 -0.0505022603     5     5     2     3
 -0.0505022603     5     5     3     2
 0.3373902827     5     5     3     3
 0.4142546948     5     5     4     4
 0.4103176031     5     5     6     6
 0.0503019998     5     6     1     2
 0.0864617349     5     6     1     3
 -0.0023035706     5     6     2     1
 -0.0039594988     5     6     3     1
 -0.4103176031     5     6     6     5
 -0.3554007188     6     1     1     6
 -0.0864617349     6     1     2     4
 -0.0503019998     6     1     2     5
 0.0503019998     6     1     3     4
 -0.0864617349     6     1     3     5
 -0.0854933583     6     1     4     2
 0.0497386145     6     1     4     3
 -0.0497386145     6     1     5     2
 -0.0854933583     6     1     5     3
 0.0039594988     6     2     1     4
 0.0023035706     6     2     1     5
 -0.4253414569     6     2     2     6
 0.0854933583     6     2     4     1
 0.0497386145     6     2     5     1
 -0.0023035706     6     3     1     4
 0.0039594988     6     3     1     5
 -0.4253414569     6     3     3     6
 -0.0497386145     6     3     4     1
 0.0854933583     6     3     5     1
 -0.0039594988     6     4     1     2
 0.0023035706     6     4     1     3
 0.0864617349     6     4     2     1
 -0.0503019998     6     4     3     1
 -0.4103176031     6     4     4     6
 -0.0023035706     6     5     1     2
 -0.0039594988     6     5     1     3
 0.0503019998     6     5     2     1
 0.0864617349     6     5     3     1
 -0.4103176031     6     5     5     6
 0.3554007188     6     6     1     1
 0.4253414569     6     6     2     2
 0.4253414569     6     6     3     3
 0.4103176031     6     6     4     4
 0.4103176031     6     6     5     5
0.0 0 0 0 0
 0.5029235041     1     1     1     1
 0.4553920779     1     1     2     2
 0.4553920779     1     1     3     3
 0.4578569747     1     1     4     4
 0.4578569747     1     1     5     5
 0.4810050250     1     1     6     6
 0.0149859855     1     2     1     2
 0.0166918547     1     2     2     1
 -0.0108584469     1     2     4     6
 -0.0063172639     1     2     5     6
 -0.0115491939     1     2     6     4
 -0.0067191290     1     2     6     5
 0.0149859855     1     3     1     3
 0.0166918547     1     3     3     1
 0.0063172639     1     3     4     6
 -0.0108584469     1     3     5     6
 0.0067191290     1     3     6     4
 -0.0115491939     1     3     6     5
 0.0220673734     1     4     1     4
 -0.0091223794     1     4     2     6
 0.0053072486     1     4     3     6
 0.0252226331     1     4     4     1
 -0.0075896951     1     4     6     2
 0.0044155584     1     4     6     3
 0.0220673734     1     5     1     5
 -0.0053072486     1     5     2     6
 -0.0091223794     1     5     3     6
 0.0252226331     1     5     5     1
 -0.0044155584     1     5     6     2
 -0.0075896951     1     5     6     3
 0.1223198614     1     6     1     6
 -0.0946157377     1     6     2     4
 -0.0550458631     1     6     2     5
 0.0550458631     1     6     3     4
 -0.0946157377     1     6     3     5
 -0.0973201818     1     6     4     2
 0.0566192637     1     6     4     3
 -0.0566192637     1     6     5     2
 -0.0973201818     1     6     5     3
 0.1256043062     1     6     6     1
 0.0166918547     2     1     1     2
 0.0149859855     2     1     2     1
 -0.0115491939     2     1     4     6
 -0.0067191290     2     1     5     6
 -0.0108584469     2     1     6     4
 -0.0063172639     2     1     6     5
 0.4553920779     2     2     1     1
 0.4762551093     2     2     2     2
 0.4488692266     2     2     3     3
 0.4703779289     2     2     4     4
 0.0162891035     2     2     4     5
 0.0162891035     2     2     5     4
 0.4518560867     2     2     5     5
 0.4497386044     2     2     6     6
 0.0127940584     2     3     2     3
 0.0145918243     2     3     3     2
 -0.0162891035     2     3     4     4
 0.0107540036     2     3     4     5
 0.0077678386     2     3     5     4
 0.0162891035     2     3     5     5
 -0.0946157377     2     4     1     6
 0.1309872161     2     4     2     4
 0.0658967237     2     4     2     5
 -0.0658967237     2     4     3     4
 0.0947689628     2     4     3     5
 0.1329876462     2     4     4     2
 -0.0667913638     2     4     4     3
 0.0667913638     2     4     5     2
 0.0971509002     2     4     5     3
 -0.0973201818     2     4     6     1
 -0.0550458631     2     5     1     6
 0.0658967237     2     5     2     4
 0.0560580640     2     5     2     5
 -0.0198398107     2     5     3     4
 0.0658967237     2     5     3     5
 0.0667913638     2     5     4     2
 -0.0212044801     2     5     4     3
 0.0570412261     2     5     5     2
 0.0667913638     2     5     5     3
 -0.0566192637     2     5     6     1
 -0.0091223794     2     6     1     4
 -0.0053072486     2     6     1     5
 0.0228278123     2     6     2     6
 -0.0075896951     2     6     4     1
 -0.0044155584     2     6     5     1
 0.0243971475     2     6     6     2
 0.0166918547     3     1     1     3
 0.0149859855     3     1     3     1
 0.0067191290     3     1     4     6
 -0.0115491939     3     1     5     6
 0.0063172639     3     1     6     4
 -0.0108584469     3     1     6     5
 0.0145918243     3     2     2     3
 0.0127940584     3     2     3     2
 -0.0162891035     3     2     4     4
 0.0077678386     3     2     4     5
 0.0107540036     3     2     5     4
 0.0162891035     3     2     5     5
 0.4553920779     3     3     1     1
 0.4488692266     3     3     2     2
 0.4762551093     3     3     3     3
 0.4518560867     3     3     4     4
 -0.0162891035     3     3     4     5
 -0.0162891035     3     3     5     4
 0.4703779289     3     3     5     5
 0.4497386044     3     3     6     6
 0.0550458631     3     4     1     6
 -0.0658967237     3     4     2     4
 -0.0198398107     3     4     2     5
 0.0560580640     3     4     3     4
 -0.0658967237     3     4     3     5
 -0.0667913638     3     4     4     2
 0.0570412261     3     4     4     3
 -0.0212044801     3     4     5     2
 -0.0667913638     3     4     5     3
 0.0566192637     3     4     6     1
 -0.0946157377     3     5     1     6
 0.0947689628     3     5     2     4
 0.0658967237     3     5     2     5
 -0.0658967237     3     5     3     4
 0.1309872161     3     5     3     5
 0.0971509002     3     5     4     2
 -0.0667913638     3     5     4     3
 0.0667913638     3     5     5     2
 0.1329876462     3     5     5     3
 -0.0973201818     3     5     6     1
 0.0053072486     3     6     1     4
 -0.0091223794     3     6     1     5
 0.0228278123     3     6     3     6
 0.0044155584     3     6     4     1
 -0.0075896951     3     6     5     1
 0.0243971475     3     6     6     3
 0.0252226331     4     1     1     4
 -0.0075896951     4     1     2     6
 0.0044155584     4     1     3     6
 0.0220673734     4     1     4     1
 -0.0091223794     4     1     6     2
 0.0053072486     4     1     6     3
 -0.0973201818     4     2     1     6
 0.1329876462     4     2     2     4
 0.0667913638     4     2     2     5
 -0.0667913638     4     2     3     4
 0.0971509002     4     2     3     5
 0.1309872161     4     2     4     2
 -0.0658967237     4     2     4     3
 0.0658967237     4     2     5     2
 0.0947689628     4     2     5     3
 -0.0946157377     4     2     6     1
 0.0566192637     4     3     1     6
 -0.0667913638     4     3     2     4
 -0.0212044801     4     3     2     5
 0.0570412261     4     3     3     4
 -0.0667913638     4     3     3     5
 -0.0658967237     4     3     4     2
 0.0560580640     4     3     4     3
 -0.0198398107     4     3     5     2
 -0.0658967237     4     3     5     3
 0.0550458631     4     3     6     1
 0.4578569747     4     4     1     1
 0.4703779289     4     4     2     2
 -0.0162891035     4     4     2     3
 -0.0162891035     4     4     3     2
 0.4518560867     4     4     3     3
 0.4606634516     4     4     4     4
 0.4315794100     4     4     5     5
 0.4291946021     4     4     6     6
 0.0162891035     4     5     2     2
 0.0107540036     4     5     2     3
 0.0077678386     4     5     3     2
 -0.0162891035     4     5     3     3
 0.0117593264     4     5     4     5
 0.0173247152     4     5     5     4
 -0.0108584469     4     6     1     2
 0.0063172639     4     6     1     3
 -0.0115491939     4     6     2     1
 0.0067191290     4     6     3     1
 0.0178485558     4     6     4     6
 0.0188769990     4     6     6     4
 0.0252226331     5     1     1     5
 -0.0044155584     5     1     2     6
 -0.0075896951     5     1     3     6
 0.0220673734     5     1     5     1
 -0.0053072486     5     1     6     2
 -0.0091223794     5     1     6     3
 -0.0566192637     5     2     1     6
 0.0667913638     5     2     2     4
 0.0570412261     5     2     2     5
 -0.0212044801     5     2     3     4
 0.0667913638     5     2     3     5
 0.0658967237     5     2     4     2
 -0.0198398107     5     2     4     3
 0.0560580640     5     2     5     2
 0.0658967237     5     2     5     3
 -0.0550458631     5     2     6     1
 -0.0973201818     5     3     1     6
 0.0971509002     5     3     2     4
 0.0667913638     5     3     2     5
 -0.0667913638     5     3     3     4
 0.1329876462     5     3     3     5
 0.0947689628     5     3     4     2
 -0.0658967237     5     3     4     3
 0.0658967237     5     3     5     2
 0.1309872161     5     3     5     3
 -0.0946157377     5     3     6     1
 0.0162891035     5     4     2     2
 0.0077678386     5     4     2     3
 0.0107540036     5     4     3     2
 -0.0162891035     5     4     3     3
 0.0173247152     5     4     4     5
 0.0117593264     5     4     5     4
 0.4578569747     5     5     1     1
 0.4518560867     5     5     2     2
 0.0162891035     5     5     2     3
 0.0162891035     5     5     3     2
 0.4703779289     5     5     3     3
 0.4315794100     5     5     4     4
 0.4606634516     5     5     5     5
 0.4291946021     5     5     6     6
 -0.0063172639     5     6     1     2
 -0.0108584469     5     6     1     3
 -0.0067191290     5     6     2     1
 -0.0115491939     5     6     3     1
 0.0178485558     5     6     5     6
 0.0188769990     5     6     6     5
 0.1256043062     6     1     1     6
 -0.0973201818     6     1     2     4
 -0.0566192637     6     1     2     5
 0.0566192637     6     1     3     4
 -0.0973201818     6     1     3     5
 -0.0946157377     6     1     4     2
 0.0550458631     6     1     4     3
 -0.0550458631     6     1     5     2
 -0.0946157377     6     1     5     3
 0.1223198614     6     1     6     1
 -0.0075896951     6     2     1     4
 -0.0044155584     6     2     1     5
 0.0243971475     6     2     2     6
 -0.0091223794     6     2     4     1
 -0.0053072486     6     2     5     1
 0.0228278123     6     2     6     2
 0.0044155584     6     3     1     4
 -0.0075896951     6     3     1     5
 0.0243971475     6     3     3     6
 0.0053072486     6     3     4     1
 -0.0091223794     6     3     5     1
 0.0228278123     6     3     6     3
 -0.0115491939     6     4     1     2
 0.0067191290     6     4     1     3
 -0.0108584469     6     4     2     1
 0.0063172639     6     4     3     1
 0.0188769990     6     4     4     6
 0.0178485558     6     4     6     4
 -0.0067191290     6     5     1     2
 -0.0115491939     6     5     1     3
 -0.0063172639     6     5     2     1
 -0.0108584469     6     5     3     1
 0.0188769990     6     5     5     6
 0.0178485558     6     5     6     5
 0.4810050250     6     6     1     1
 0.4497386044     6     6     2     2
 0.4497386044     6     6     3     3
 0.4291946021     6     6     4     4
 0.4291946021     6     6     5     5
 0.4608083002     6     6     6     6
0.0 0 0 0 0
 -2.8710090806     1     1     0     0
 -2.7483357611     2     2     0     0
 -2.7483357611     3     3     0     0
 -2.5078816827     4     4     0     0
 -2.5078816827     5     5     0     0
 -2.3334579435     6     6     0     0
0.0 0 0 0 0
 -2.8710090806     1     1     0     0
 -2.7483357611     2     2     0     0
 -2.7483357611     3     3     0     0
 -2.5078816827     4     4     0     0
 -2.5078816827     5     5     0     0
 -2.3334579435     6     6     0     0
-99.0108201315 0 0 0 0
