&FCI NORB=  7,NELEC=  8,MS2=0,
 ORBSYM=1,1,1,1,1,1,1
 ISYM=1,
&END
 0.2578296122     1     1     2     2
 -0.0000000202     1     1     2     7
 0.2652350222     1     1     3     3
 0.0000000116     1     1     3     4
 0.0000000116     1     1     4     3
 0.2686585748     1     1     4     4
 0.2614797730     1     1     5     5
 -0.0000000127     1     1     5     6
 -0.0000000127     1     1     6     5
 0.2576774336     1     1     6     6
 -0.0000000202     1     1     7     2
 0.1892685848     1     1     7     7
 -0.2578296122     1     2     2     1
 -0.0000000116     1     2     3     3
 -0.0020826326     1     2     3     4
 -0.0013409228     1     2     4     3
 0.0000000116     1     2     4     4
 0.0000000127     1     2     5     5
 0.0010251881     1     2     5     6
 0.0027771366     1     2     6     5
 -0.0000000127     1     2     6     6
 0.0000000202     1     2     7     1
 -0.0000715150     1     3     2     4
 -0.2652350222     1     3     3     1
 0.0000000116     1     3     3     2
 0.0000000033     1     3     3     7
 -0.0000000116     1     3     4     1
 0.0013409228     1     3     4     2
 -0.0010286525     1     3     4     7
 -0.0000000006     1     3     7     4
 0.0000715150     1     4     2     3
 -0.0000000116     1     4     3     1
 0.0020826326     1     4     3     2
 -0.0010286520     1     4     3     7
 -0.2686585748     1     4     4     1
 -0.0000000116     1     4     4     2
 -0.0000000033     1     4     4     7
 0.0000000006     1     4     7     3
 -0.0007823603     1     5     2     6
 -0.2614797730     1     5     5     1
 -0.0000000127     1     5     5     2
 -0.0000000009     1     5     5     7
 0.0000000127     1     5     6     1
 -0.0027771366     1     5     6     2
 0.0002539141     1     5     6     7
 0.0000000014     1     5     7     6
 0.0007823603     1     6     2     5
 0.0000000127     1     6     5     1
 -0.0010251881     1     6     5     2
 0.0002539128     1     6     5     7
 -0.2576774336     1     6     6     1
 0.0000000127     1     6     6     2
 0.0000000009     1     6     6     7
 -0.0000000014     1     6     7     5
 0.0000000202     1     7     2     1
 -0.0000000033     1     7     3     3
 0.0010286520     1     7     3     4
 0.0010286525     1     7     4     3
 0.0000000033     1     7     4     4
 0.0000000009     1     7     5     5
 -0.0002539128     1     7     5     6
 -0.0002539141     1     7     6     5
 -0.0000000009     1     7     6     6
 -0.1892685848     1     7     7     1
 -0.2578296122     2     1     1     2
 0.0000000202     2     1     1     7
 -0.0000000116     2     1     3     3
 -0.0013409228     2     1     3     4
 -0.0020826326     2     1     4     3
 0.0000000116     2     1     4     4
 0.0000000127     2     1     5     5
 0.0027771366     2     1     5     6
 0.0010251881     2     1     6     5
 -0.0000000127     2     1     6     6
 0.2578296122     2     2     1     1
 0.2686585671     2     2     3     3
 -0.0000000116     2     2     3     4
 -0.0000000116     2     2     4     3
 0.2652349955     2     2     4     4
 0.2576774278     2     2     5     5
 0.0000000127     2     2     5     6
 0.0000000127     2     2     6     5
 0.2614797519     2     2     6     6
 0.1892685966     2     2     7     7
 0.0000715150     2     3     1     4
 0.0000000116     2     3     3     1
 -0.2686585671     2     3     3     2
 -0.0010286312     2     3     3     7
 0.0020826326     2     3     4     1
 0.0000000116     2     3     4     2
 -0.0000000033     2     3     4     7
 -0.0000715150     2     4     1     3
 0.0013409228     2     4     3     1
 0.0000000116     2     4     3     2
 -0.0000000033     2     4     3     7
 -0.0000000116     2     4     4     1
 -0.2652349955     2     4     4     2
 0.0010286729     2     4     4     7
 0.0007823603     2     5     1     6
 -0.0000000127     2     5     5     1
 -0.2576774278     2     5     5     2
 0.0002539320     2     5     5     7
 -0.0010251881     2     5     6     1
 -0.0000000127     2     5     6     2
 0.0000000009     2     5     6     7
 -0.0007823603     2     6     1     5
 -0.0027771366     2     6     5     1
 -0.0000000127     2     6     5     2
 0.0000000009     2     6     5     7
 0.0000000127     2     6     6     1
 -0.2614797519     2     6     6     2
 -0.0002538958     2     6     6     7
 -0.0000000202     2     7     1     1
 0.0010286312     2     7     3     3
 0.0000000033     2     7     3     4
 0.0000000033     2     7     4     3
 -0.0010286729     2     7     4     4
 -0.0002539320     2     7     5     5
 -0.0000000009     2     7     5     6
 -0.0000000009     2     7     6     5
 0.0002538958     2     7     6     6
 -0.1892685966     2     7     7     2
 -0.2652350222     3     1     1     3
 -0.0000000116     3     1     1     4
 0.0000000116     3     1     2     3
 0.0013409228     3     1     2     4
 -0.0000715150     3     1     4     2
 -0.0000000006     3     1     4     7
 0.0000000033     3     1     7     3
 -0.0010286525     3     1     7     4
 0.0000000116     3     2     1     3
 0.0020826326     3     2     1     4
 -0.2686585671     3     2     2     3
 0.0000000116     3     2     2     4
 0.0000715150     3     2     4     1
 -0.0010286312     3     2     7     3
 -0.0000000033     3     2     7     4
 0.2652350222     3     3     1     1
 -0.0000000116     3     3     1     2
 -0.0000000033     3     3     1     7
 -0.0000000116     3     3     2     1
 0.2686585671     3     3     2     2
 0.0010286312     3     3     2     7
 0.2505466726     3     3     4     4
 0.2299807807     3     3     5     5
 -0.0000000005     3     3     5     6
 -0.0000000005     3     3     6     5
 0.2390623842     3     3     6     6
 -0.0000000033     3     3     7     1
 0.0010286312     3     3     7     2
 0.1877393316     3     3     7     7
 0.0000000116     3     4     1     1
 -0.0020826326     3     4     1     2
 0.0010286520     3     4     1     7
 -0.0013409228     3     4     2     1
 -0.0000000116     3     4     2     2
 0.0000000033     3     4     2     7
 -0.2505466726     3     4     4     3
 0.0000000005     3     4     5     5
 -0.0279437548     3     4     5     6
 0.0188621425     3     4     6     5
 -0.0000000005     3     4     6     6
 0.0010286525     3     4     7     1
 0.0000000033     3     4     7     2
 -0.0456070684     3     5     4     6
 -0.2299807807     3     5     5     3
 -0.0000000005     3     5     5     4
 0.0000000005     3     5     6     3
 -0.0188621425     3     5     6     4
 0.0456070684     3     6     4     5
 0.0000000005     3     6     5     3
 0.0279437548     3     6     5     4
 -0.2390623842     3     6     6     3
 0.0000000005     3     6     6     4
 0.0000000033     3     7     1     3
 -0.0010286520     3     7     1     4
 -0.0010286312     3     7     2     3
 -0.0000000033     3     7     2     4
 0.0000000006     3     7     4     1
 -0.1877393316     3     7     7     3
 -0.0000000116     4     1     1     3
 -0.2686585748     4     1     1     4
 0.0020826326     4     1     2     3
 -0.0000000116     4     1     2     4
 0.0000715150     4     1     3     2
 0.0000000006     4     1     3     7
 -0.0010286520     4     1     7     3
 -0.0000000033     4     1     7     4
 0.0013409228     4     2     1     3
 -0.0000000116     4     2     1     4
 0.0000000116     4     2     2     3
 -0.2652349955     4     2     2     4
 -0.0000715150     4     2     3     1
 -0.0000000033     4     2     7     3
 0.0010286729     4     2     7     4
 0.0000000116     4     3     1     1
 -0.0013409228     4     3     1     2
 0.0010286525     4     3     1     7
 -0.0020826326     4     3     2     1
 -0.0000000116     4     3     2     2
 0.0000000033     4     3     2     7
 -0.2505466726     4     3     3     4
 0.0000000005     4     3     5     5
 0.0188621425     4     3     5     6
 -0.0279437548     4     3     6     5
 -0.0000000005     4     3     6     6
 0.0010286520     4     3     7     1
 0.0000000033     4     3     7     2
 0.2686585748     4     4     1     1
 0.0000000116     4     4     1     2
 0.0000000033     4     4     1     7
 0.0000000116     4     4     2     1
 0.2652349955     4     4     2     2
 -0.0010286729     4     4     2     7
 0.2505466726     4     4     3     3
 0.2390623806     4     4     5     5
 0.0000000005     4     4     5     6
 0.0000000005     4     4     6     5
 0.2299807716     4     4     6     6
 0.0000000033     4     4     7     1
 -0.0010286729     4     4     7     2
 0.1877393129     4     4     7     7
 0.0456070684     4     5     3     6
 -0.0000000005     4     5     5     3
 -0.2390623806     4     5     5     4
 0.0279437548     4     5     6     3
 -0.0000000005     4     5     6     4
 -0.0456070684     4     6     3     5
 -0.0188621425     4     6     5     3
 -0.0000000005     4     6     5     4
 0.0000000005     4     6     6     3
 -0.2299807716     4     6     6     4
 -0.0010286525     4     7     1     3
 -0.0000000033     4     7     1     4
 -0.0000000033     4     7     2     3
 0.0010286729     4     7     2     4
 -0.0000000006     4     7     3     1
 -0.1877393129     4     7     7     4
 -0.2614797730     5     1     1     5
 0.0000000127     5     1     1     6
 -0.0000000127     5     1     2     5
 -0.0027771366     5     1     2     6
 -0.0007823603     5     1     6     2
 0.0000000014     5     1     6     7
 -0.0000000009     5     1     7     5
 0.0002539141     5     1     7     6
 -0.0000000127     5     2     1     5
 -0.0010251881     5     2     1     6
 -0.2576774278     5     2     2     5
 -0.0000000127     5     2     2     6
 0.0007823603     5     2     6     1
 0.0002539320     5     2     7     5
 0.0000000009     5     2     7     6
 -0.2299807807     5     3     3     5
 0.0000000005     5     3     3     6
 -0.0000000005     5     3     4     5
 -0.0188621425     5     3     4     6
 -0.0456070684     5     3     6     4
 -0.0000000005     5     4     3     5
 0.0279437548     5     4     3     6
 -0.2390623806     5     4     4     5
 -0.0000000005     5     4     4     6
 0.0456070684     5     4     6     3
 0.2614797730     5     5     1     1
 0.0000000127     5     5     1     2
 0.0000000009     5     5     1     7
 0.0000000127     5     5     2     1
 0.2576774278     5     5     2     2
 -0.0002539320     5     5     2     7
 0.2299807807     5     5     3     3
 0.0000000005     5     5     3     4
 0.0000000005     5     5     4     3
 0.2390623806     5     5     4     4
 0.2441618283     5     5     6     6
 0.0000000009     5     5     7     1
 -0.0002539320     5     5     7     2
 0.1840705989     5     5     7     7
 -0.0000000127     5     6     1     1
 0.0010251881     5     6     1     2
 -0.0002539128     5     6     1     7
 0.0027771366     5     6     2     1
 0.0000000127     5     6     2     2
 -0.0000000009     5     6     2     7
 -0.0000000005     5     6     3     3
 -0.0279437548     5     6     3     4
 0.0188621425     5     6     4     3
 0.0000000005     5     6     4     4
 -0.2441618283     5     6     6     5
 -0.0002539141     5     6     7     1
 -0.0000000009     5     6     7     2
 -0.0000000009     5     7     1     5
 0.0002539128     5     7     1     6
 0.0002539320     5     7     2     5
 0.0000000009     5     7     2     6
 -0.0000000014     5     7     6     1
 -0.1840705989     5     7     7     5
 0.0000000127     6     1     1     5
 -0.2576774336     6     1     1     6
 -0.0010251881     6     1     2     5
 0.0000000127     6     1     2     6
 0.0007823603     6     1     5     2
 -0.0000000014     6     1     5     7
 0.0002539128     6     1     7     5
 0.0000000009     6     1     7     6
 -0.0027771366     6     2     1     5
 0.0000000127     6     2     1     6
 -0.0000000127     6     2     2     5
 -0.2614797519     6     2     2     6
 -0.0007823603     6     2     5     1
 0.0000000009     6     2     7     5
 -0.0002538958     6     2     7     6
 0.0000000005     6     3     3     5
 -0.2390623842     6     3     3     6
 0.0279437548     6     3     4     5
 0.0000000005     6     3     4     6
 0.0456070684     6     3     5     4
 -0.0188621425     6     4     3     5
 0.0000000005     6     4     3     6
 -0.0000000005     6     4     4     5
 -0.2299807716     6     4     4     6
 -0.0456070684     6     4     5     3
 -0.0000000127     6     5     1     1
 0.0027771366     6     5     1     2
 -0.0002539141     6     5     1     7
 0.0010251881     6     5     2     1
 0.0000000127     6     5     2     2
 -0.0000000009     6     5     2     7
 -0.0000000005     6     5     3     3
 0.0188621425     6     5     3     4
 -0.0279437548     6     5     4     3
 0.0000000005     6     5     4     4
 -0.2441618283     6     5     5     6
 -0.0002539128     6     5     7     1
 -0.0000000009     6     5     7     2
 0.2576774336     6     6     1     1
 -0.0000000127     6     6     1     2
 -0.0000000009     6     6     1     7
 -0.0000000127     6     6     2     1
 0.2614797519     6     6     2     2
 0.0002538958     6     6     2     7
 0.2390623842     6     6     3     3
 -0.0000000005     6     6     3     4
 -0.0000000005     6     6     4     3
 0.2299807716     6     6     4     4
 0.2441618283     6     6     5     5
 -0.0000000009     6     6     7     1
 0.0002538958     6     6     7     2
 0.1840706075     6     6     7     7
 0.0002539141     6     7     1     5
 0.0000000009     6     7     1     6
 0.0000000009     6     7     2     5
 -0.0002538958     6     7     2     6
 0.0000000014     6     7     5     1
 -0.1840706075     6     7     7     6
 0.0000000202     7     1     1     2
 -0.1892685848     7     1     1     7
 -0.0000000033     7     1     3     3
 0.0010286525     7     1     3     4
 0.0010286520     7     1     4     3
 0.0000000033     7     1     4     4
 0.0000000009     7     1     5     5
 -0.0002539141     7     1     5     6
 -0.0002539128     7     1     6     5
 -0.0000000009     7     1     6     6
 -0.0000000202     7     2     1     1
 -0.1892685966     7     2     2     7
 0.0010286312     7     2     3     3
 0.0000000033     7     2     3     4
 0.0000000033     7     2     4     3
 -0.0010286729     7     2     4     4
 -0.0002539320     7     2     5     5
 -0.0000000009     7     2     5     6
 -0.0000000009     7     2     6     5
 0.0002538958     7     2     6     6
 0.0000000006     7     3     1     4
 0.0000000033     7     3     3     1
 -0.0010286312     7     3     3     2
 -0.1877393316     7     3     3     7
 -0.0010286520     7     3     4     1
 -0.0000000033     7     3     4     2
 -0.0000000006     7     4     1     3
 -0.0010286525     7     4     3     1
 -0.0000000033     7     4     3     2
 -0.0000000033     7     4     4     1
 0.0010286729     7     4     4     2
 -0.1877393129     7     4     4     7
 -0.0000000014     7     5     1     6
 -0.0000000009     7     5     5     1
 0.0002539320     7     5     5     2
 -0.1840705989     7     5     5     7
 0.0002539128     7     5     6     1
 0.0000000009     7     5     6     2
 0.0000000014     7     6     1     5
 0.0002539141     7     6     5     1
 0.0000000009     7     6     5     2
 0.0000000009     7     6     6     1
 -0.0002538958     7     6     6     2
 -0.1840706075     7     6     6     7
 0.1892685848     7     7     1     1
 0.1892685966     7     7     2     2
 0.1877393316     7     7     3     3
 0.1877393129     7     7     4     4
 0.1840705989     7     7     5     5
 0.1840706075     7     7     6     6
0.0 0 0 0 0
 0.2578296122     1     1     2     2
 -0.0000000202     1     1     2     7
 0.2652350222     1     1     3     3
 0.0000000116     1     1     3     4
 0.0000000116     1     1     4     3
 0.2686585748     1     1     4     4
 0.2614797730     1     1     5     5
 -0.0000000127     1     1     5     6
 -0.0000000127     1     1     6     5
 0.2576774336     1     1     6     6
 -0.0000000202     1     1     7     2
 0.1892685848     1     1     7     7
 -0.2578296122     1     2     2     1
 -0.0000000116     1     2     3     3
 -0.0020826326     1     2     3     4
 -0.0013409228     1     2     4     3
 0.0000000116     1     2     4     4
 0.0000000127     1     2     5     5
 0.0010251881     1     2     5     6
 0.0027771366     1     2     6     5
 -0.0000000127     1     2     6     6
 0.0000000202     1     2     7     1
 -0.0000715150     1     3     2     4
 -0.2652350222     1     3     3     1
 0.0000000116     1     3     3     2
 0.0000000033     1     3     3     7
 -0.0000000116     1     3     4     1
 0.0013409228     1     3     4     2
 -0.0010286525     1     3     4     7
 -0.0000000006     1     3     7     4
 0.0000715150     1     4     2     3
 -0.0000000116     1     4     3     1
 0.0020826326     1     4     3     2
 -0.0010286520     1     4     3     7
 -0.2686585748     1     4     4     1
 -0.0000000116     1     4     4     2
 -0.0000000033     1     4     4     7
 0.0000000006     1     4     7     3
 -0.0007823603     1     5     2     6
 -0.2614797730     1     5     5     1
 -0.0000000127     1     5     5     2
 -0.0000000009     1     5     5     7
 0.0000000127     1     5     6     1
 -0.0027771366     1     5     6     2
 0.0002539141     1     5     6     7
 0.0000000014     1     5     7     6
 0.0007823603     1     6     2     5
 0.0000000127     1     6     5     1
 -0.0010251881     1     6     5     2
 0.0002539128     1     6     5     7
 -0.2576774336     1     6     6     1
 0.0000000127     1     6     6     2
 0.0000000009     1     6     6     7
 -0.0000000014     1     6     7     5
 0.0000000202     1     7     2     1
 -0.0000000033     1     7     3     3
 0.0010286520     1     7     3     4
 0.0010286525     1     7     4     3
 0.0000000033     1     7     4     4
 0.0000000009     1     7     5     5
 -0.0002539128     1     7     5     6
 -0.0002539141     1     7     6     5
 -0.0000000009     1     7     6     6
 -0.1892685848     1     7     7     1
 -0.2578296122     2     1     1     2
 0.0000000202     2     1     1     7
 -0.0000000116     2     1     3     3
 -0.0013409228     2     1     3     4
 -0.0020826326     2     1     4     3
 0.0000000116     2     1     4     4
 0.0000000127     2     1     5     5
 0.0027771366     2     1     5     6
 0.0010251881     2     1     6     5
 -0.0000000127     2     1     6     6
 0.2578296122     2     2     1     1
 0.2686585671     2     2     3     3
 -0.0000000116     2     2     3     4
 -0.0000000116     2     2     4     3
 0.2652349955     2     2     4     4
 0.2576774278     2     2     5     5
 0.0000000127     2     2     5     6
 0.0000000127     2     2     6     5
 0.2614797519     2     2     6     6
 0.1892685966     2     2     7     7
 0.0000715150     2     3     1     4
 0.0000000116     2     3     3     1
 -0.2686585671     2     3     3     2
 -0.0010286312     2     3     3     7
 0.0020826326     2     3     4     1
 0.0000000116     2     3     4     2
 -0.0000000033     2     3     4     7
 -0.0000715150     2     4     1     3
 0.0013409228     2     4     3     1
 0.0000000116     2     4     3     2
 -0.0000000033     2     4     3     7
 -0.0000000116     2     4     4     1
 -0.2652349955     2     4     4     2
 0.0010286729     2     4     4     7
 0.0007823603     2     5     1     6
 -0.0000000127     2     5     5     1
 -0.2576774278     2     5     5     2
 0.0002539320     2     5     5     7
 -0.0010251881     2     5     6     1
 -0.0000000127     2     5     6     2
 0.0000000009     2     5     6     7
 -0.0007823603     2     6     1     5
 -0.0027771366     2     6     5     1
 -0.0000000127     2     6     5     2
 0.0000000009     2     6     5     7
 0.0000000127     2     6     6     1
 -0.2614797519     2     6     6     2
 -0.0002538958     2     6     6     7
 -0.0000000202     2     7     1     1
 0.0010286312     2     7     3     3
 0.0000000033     2     7     3     4
 0.0000000033     2     7     4     3
 -0.0010286729     2     7     4     4
 -0.0002539320     2     7     5     5
 -0.0000000009     2     7     5     6
 -0.0000000009     2     7     6     5
 0.0002538958     2     7     6     6
 -0.1892685966     2     7     7     2
 -0.2652350222     3     1     1     3
 -0.0000000116     3     1     1     4
 0.0000000116     3     1     2     3
 0.0013409228     3     1     2     4
 -0.0000715150     3     1     4     2
 -0.0000000006     3     1     4     7
 0.0000000033     3     1     7     3
 -0.0010286525     3     1     7     4
 0.0000000116     3     2     1     3
 0.0020826326     3     2     1     4
 -0.2686585671     3     2     2     3
 0.0000000116     3     2     2     4
 0.0000715150     3     2     4     1
 -0.0010286312     3     2     7     3
 -0.0000000033     3     2     7     4
 0.2652350222     3     3     1     1
 -0.0000000116     3     3     1     2
 -0.0000000033     3     3     1     7
 -0.0000000116     3     3     2     1
 0.2686585671     3     3     2     2
 0.0010286312     3     3     2     7
 0.2505466726     3     3     4     4
 0.2299807807     3     3     5     5
 -0.0000000005     3     3     5     6
 -0.0000000005     3     3     6     5
 0.2390623842     3     3     6     6
 -0.0000000033     3     3     7     1
 0.0010286312     3     3     7     2
 0.1877393316     3     3     7     7
 0.0000000116     3     4     1     1
 -0.0020826326     3     4     1     2
 0.0010286520     3     4     1     7
 -0.0013409228     3     4     2     1
 -0.0000000116     3     4     2     2
 0.0000000033     3     4     2     7
 -0.2505466726     3     4     4     3
 0.0000000005     3     4     5     5
 -0.0279437548     3     4     5     6
 0.0188621425     3     4     6     5
 -0.0000000005     3     4     6     6
 0.0010286525     3     4     7     1
 0.0000000033     3     4     7     2
 -0.0456070684     3     5     4     6
 -0.2299807807     3     5     5     3
 -0.0000000005     3     5     5     4
 0.0000000005     3     5     6     3
 -0.0188621425     3     5     6     4
 0.0456070684     3     6     4     5
 0.0000000005     3     6     5     3
 0.0279437548     3     6     5     4
 -0.2390623842     3     6     6     3
 0.0000000005     3     6     6     4
 0.0000000033     3     7     1     3
 -0.0010286520     3     7     1     4
 -0.0010286312     3     7     2     3
 -0.0000000033     3     7     2     4
 0.0000000006     3     7     4     1
 -0.1877393316     3     7     7     3
 -0.0000000116     4     1     1     3
 -0.2686585748     4     1     1     4
 0.0020826326     4     1     2     3
 -0.0000000116     4     1     2     4
 0.0000715150     4     1     3     2
 0.0000000006     4     1     3     7
 -0.0010286520     4     1     7     3
 -0.0000000033     4     1     7     4
 0.0013409228     4     2     1     3
 -0.0000000116     4     2     1     4
 0.0000000116     4     2     2     3
 -0.2652349955     4     2     2     4
 -0.0000715150     4     2     3     1
 -0.0000000033     4     2     7     3
 0.0010286729     4     2     7     4
 0.0000000116     4     3     1     1
 -0.0013409228     4     3     1     2
 0.0010286525     4     3     1     7
 -0.0020826326     4     3     2     1
 -0.0000000116     4     3     2     2
 0.0000000033     4     3     2     7
 -0.2505466726     4     3     3     4
 0.0000000005     4     3     5     5
 0.0188621425     4     3     5     6
 -0.0279437548     4     3     6     5
 -0.0000000005     4     3     6     6
 0.0010286520     4     3     7     1
 0.0000000033     4     3     7     2
 0.2686585748     4     4     1     1
 0.0000000116     4     4     1     2
 0.0000000033     4     4     1     7
 0.0000000116     4     4     2     1
 0.2652349955     4     4     2     2
 -0.0010286729     4     4     2     7
 0.2505466726     4     4     3     3
 0.2390623806     4     4     5     5
 0.0000000005     4     4     5     6
 0.0000000005     4     4     6     5
 0.2299807716     4     4     6     6
 0.0000000033     4     4     7     1
 -0.0010286729     4     4     7     2
 0.1877393129     4     4     7     7
 0.0456070684     4     5     3     6
 -0.0000000005     4     5     5     3
 -0.2390623806     4     5     5     4
 0.0279437548     4     5     6     3
 -0.0000000005     4     5     6     4
 -0.0456070684     4     6     3     5
 -0.0188621425     4     6     5     3
 -0.0000000005     4     6     5     4
 0.0000000005     4     6     6     3
 -0.2299807716     4     6     6     4
 -0.0010286525     4     7     1     3
 -0.0000000033     4     7     1     4
 -0.0000000033     4     7     2     3
 0.0010286729     4     7     2     4
 -0.0000000006     4     7     3     1
 -0.1877393129     4     7     7     4
 -0.2614797730     5     1     1     5
 0.0000000127     5     1     1     6
 -0.0000000127     5     1     2     5
 -0.0027771366     5     1     2     6
 -0.0007823603     5     1     6     2
 0.0000000014     5     1     6     7
 -0.0000000009     5     1     7     5
 0.0002539141     5     1     7     6
 -0.0000000127     5     2     1     5
 -0.0010251881     5     2     1     6
 -0.2576774278     5     2     2     5
 -0.0000000127     5     2     2     6
 0.0007823603     5     2     6     1
 0.0002539320     5     2     7     5
 0.0000000009     5     2     7     6
 -0.2299807807     5     3     3     5
 0.0000000005     5     3     3     6
 -0.0000000005     5     3     4     5
 -0.0188621425     5     3     4     6
 -0.0456070684     5     3     6     4
 -0.0000000005     5     4     3     5
 0.0279437548     5     4     3     6
 -0.2390623806     5     4     4     5
 -0.0000000005     5     4     4     6
 0.0456070684     5     4     6     3
 0.2614797730     5     5     1     1
 0.0000000127     5     5     1     2
 0.0000000009     5     5     1     7
 0.0000000127     5     5     2     1
 0.2576774278     5     5     2     2
 -0.0002539320     5     5     2     7
 0.2299807807     5     5     3     3
 0.0000000005     5     5     3     4
 0.0000000005     5     5     4     3
 0.2390623806     5     5     4     4
 0.2441618283     5     5     6     6
 0.0000000009     5     5     7     1
 -0.0002539320     5     5     7     2
 0.1840705989     5     5     7     7
 -0.0000000127     5     6     1     1
 0.0010251881     5     6     1     2
 -0.0002539128     5     6     1     7
 0.0027771366     5     6     2     1
 0.0000000127     5     6     2     2
 -0.0000000009     5     6     2     7
 -0.0000000005     5     6     3     3
 -0.0279437548     5     6     3     4
 0.0188621425     5     6     4     3
 0.0000000005     5     6     4     4
 -0.2441618283     5     6     6     5
 -0.0002539141     5     6     7     1
 -0.0000000009     5     6     7     2
 -0.0000000009     5     7     1     5
 0.0002539128     5     7     1     6
 0.0002539320     5     7     2     5
 0.0000000009     5     7     2     6
 -0.0000000014     5     7     6     1
 -0.1840705989     5     7     7     5
 0.0000000127     6     1     1     5
 -0.2576774336     6     1     1     6
 -0.0010251881     6     1     2     5
 0.0000000127     6     1     2     6
 0.0007823603     6     1     5     2
 -0.0000000014     6     1     5     7
 0.0002539128     6     1     7     5
 0.0000000009     6     1     7     6
 -0.0027771366     6     2     1     5
 0.0000000127     6     2     1     6
 -0.0000000127     6     2     2     5
 -0.2614797519     6     2     2     6
 -0.0007823603     6     2     5     1
 0.0000000009     6     2     7     5
 -0.0002538958     6     2     7     6
 0.0000000005     6     3     3     5
 -0.2390623842     6     3     3     6
 0.0279437548     6     3     4     5
 0.0000000005     6     3     4     6
 0.0456070684     6     3     5     4
 -0.0188621425     6     4     3     5
 0.0000000005     6     4     3     6
 -0.0000000005     6     4     4     5
 -0.2299807716     6     4     4     6
 -0.0456070684     6     4     5     3
 -0.0000000127     6     5     1     1
 0.0027771366     6     5     1     2
 -0.0002539141     6     5     1     7
 0.0010251881     6     5     2     1
 0.0000000127     6     5     2     2
 -0.0000000009     6     5     2     7
 -0.0000000005     6     5     3     3
 0.0188621425     6     5     3     4
 -0.0279437548     6     5     4     3
 0.0000000005     6     5     4     4
 -0.2441618283     6     5     5     6
 -0.0002539128     6     5     7     1
 -0.0000000009     6     5     7     2
 0.2576774336     6     6     1     1
 -0.0000000127     6     6     1     2
 -0.0000000009     6     6     1     7
 -0.0000000127     6     6     2     1
 0.2614797519     6     6     2     2
 0.0002538958     6     6     2     7
 0.2390623842     6     6     3     3
 -0.0000000005     6     6     3     4
 -0.0000000005     6     6     4     3
 0.2299807716     6     6     4     4
 0.2441618283     6     6     5     5
 -0.0000000009     6     6     7     1
 0.0002538958     6     6     7     2
 0.1840706075     6     6     7     7
 0.0002539141     6     7     1     5
 0.0000000009     6     7     1     6
 0.0000000009     6     7     2     5
 -0.0002538958     6     7     2     6
 0.0000000014     6     7     5     1
 -0.1840706075     6     7     7     6
 0.0000000202     7     1     1     2
 -0.1892685848     7     1     1     7
 -0.0000000033     7     1     3     3
 0.0010286525     7     1     3     4
 0.0010286520     7     1     4     3
 0.0000000033     7     1     4     4
 0.0000000009     7     1     5     5
 -0.0002539141     7     1     5     6
 -0.0002539128     7     1     6     5
 -0.0000000009     7     1     6     6
 -0.0000000202     7     2     1     1
 -0.1892685966     7     2     2     7
 0.0010286312     7     2     3     3
 0.0000000033     7     2     3     4
 0.0000000033     7     2     4     3
 -0.0010286729     7     2     4     4
 -0.0002539320     7     2     5     5
 -0.0000000009     7     2     5     6
 -0.0000000009     7     2     6     5