&FCI NORB= 10,NELEC=  8,MS2=0,
 ORBSYM=1,1,1,1,1,1,1,1,1,1
 ISYM=1,
&END
 0.2587184028     1     1     2     2
 -0.0000032931     1     1     2     7
 0.0000000335     1     1     2    10
 0.2668051498     1     1     3     3
 -0.0000000091     1     1     3     4
 -0.0000000091     1     1     4     3
 0.2699067385     1     1     4     4
 0.2609489026     1     1     5     5
 -0.0000000114     1     1     5     6
 -0.0000000114     1     1     6     5
 0.2569186799     1     1     6     6
 -0.0000032931     1     1     7     2
 0.1896853932     1     1     7     7
 0.0000000497     1     1     7    10
 0.1752989884     1     1     8     8
 0.0000000375     1     1     8     9
 0.0000000375     1     1     9     8
 0.1851401944     1     1     9     9
 0.0000000335     1     1    10     2
 0.0000000497     1     1    10     7
 0.1790242237     1     1    10    10
 -0.2587184028     1     2     2     1
 0.0000000001     1     2     2     7
 0.0201441119     1     2     2    10
 0.0000000087     1     2     3     3
 -0.0019261015     1     2     3     4
 -0.0011659833     1     2     4     3
 -0.0000000094     1     2     4     4
 -0.0000000117     1     2     5     5
 -0.0011644325     1     2     5     6
 -0.0028624046     1     2     6     5
 0.0000000111     1     2     6     6
 0.0000032931     1     2     7     1
 -0.0000000002     1     2     7     7
 0.0072057913     1     2     7    10
 0.0000000374     1     2     8     8
 0.0052197854     1     2     8     9
 0.0046236456     1     2     9     8
 -0.0000000376     1     2     9     9
 -0.0000000335     1     2    10     1
 0.0072105844     1     2    10     7
 -0.0000000070     1     2    10    10
 -0.0000715350     1     3     2     4
 -0.2668051498     1     3     3     1
 -0.0000000087     1     3     3     2
 0.0000000027     1     3     3     7
 0.0190862696     1     3     3    10
 0.0000000091     1     3     4     1
 0.0011659833     1     3     4     2
 0.0008729294     1     3     4     7
 -0.0000000030     1     3     4    10
 0.0013083742     1     3     5     8
 0.0000000049     1     3     5     9
 -0.0000000118     1     3     6     8
 -0.0005303155     1     3     6     9
 -0.0000005677     1     3     7     4
 0.0001071471     1     3     8     5
 -0.0000000007     1     3     8     6
 -0.0000000003     1     3     9     5
 -0.0001940384     1     3     9     6
 0.0000000016     1     3    10     4
 0.0000715350     1     4     2     3
 0.0000000091     1     4     3     1
 0.0019261015     1     4     3     2
 0.0008739613     1     4     3     7
 -0.0000000048     1     4     3    10
 -0.2699067385     1     4     4     1
 0.0000000094     1     4     4     2
 -0.0000000023     1     4     4     7
 0.0209818364     1     4     4    10
 -0.0000000054     1     4     5     8
 -0.0039583013     1     4     5     9
 0.0021196500     1     4     6     8
 0.0000000015     1     4     6     9
 0.0000005677     1     4     7     3
 -0.0000000008     1     4     8     5
 -0.0000866553     1     4     8     6
 -0.0002141890     1     4     9     5
 0.0000000004     1     4     9     6
 -0.0000000016     1     4    10     3
 0.0007928821     1     5     2     6
 0.0008431146     1     5     3     8
 0.0000000055     1     5     3     9
 -0.0000000032     1     5     4     8
 -0.0030532026     1     5     4     9
 -0.2609489026     1     5     5     1
 0.0000000117     1     5     5     2
 -0.0000000006     1     5     5     7
 0.0180253877     1     5     5    10
 0.0000000114     1     5     6     1
 0.0028624046     1     5     6     2
 0.0002799390     1     5     6     7
 0.0000000003     1     5     6    10
 0.0000000367     1     5     7     6
 -0.0001071471     1     5     8     3
 0.0000000008     1     5     8     4
 0.0000000003     1     5     9     3
 0.0002141890     1     5     9     4
 0.0000000027     1     5    10     6
 -0.0007928821     1     6     2     5
 -0.0000000087     1     6     3     8
 -0.0000542686     1     6     3     9
 0.0021551934     1     6     4     8
 0.0000000001     1     6     4     9
 0.0000000114     1     6     5     1
 0.0011644325     1     6     5     2
 0.0002792571     1     6     5     7
 -0.0000000023     1     6     5    10
 -0.2569186799     1     6     6     1
 -0.0000000111     1     6     6     2
 0.0000000010     1     6     6     7
 0.0175255350     1     6     6    10
 -0.0000000367     1     6     7     5
 0.0000000007     1     6     8     3
 0.0000866553     1     6     8     4
 0.0001940384     1     6     9     3
 -0.0000000004     1     6     9     4
 -0.0000000027     1     6    10     5
 0.0000032931     1     7     2     1
 -0.0000000001     1     7     2     2
 -0.0000127436     1     7     2    10
 -0.0000000027     1     7     3     3
 -0.0008739613     1     7     3     4
 -0.0008729294     1     7     4     3
 0.0000000023     1     7     4     4
 0.0000000006     1     7     5     5
 -0.0002792571     1     7     5     6
 -0.0002799390     1     7     6     5
 -0.0000000010     1     7     6     6
 -0.1896853932     1     7     7     1
 0.0000000002     1     7     7     2
 0.0117646217     1     7     7    10
 -0.0000000009     1     7     8     8
 0.0010313659     1     7     8     9
 0.0010306455     1     7     9     8
 0.0000000008     1     7     9     9
 -0.0000000497     1     7    10     1
 -0.0072105844     1     7    10     2
 0.0000000066     1     7    10    10
 0.0006873706     1     8     2     9
 -0.0008431146     1     8     3     5
 0.0000000087     1     8     3     6
 0.0000000032     1     8     4     5
 -0.0021551934     1     8     4     6
 -0.0013083742     1     8     5     3
 0.0000000054     1     8     5     4
 0.0000000118     1     8     6     3
 -0.0021196500     1     8     6     4
 0.0000007047     1     8     7     9
 -0.1752989884     1     8     8     1
 -0.0000000374     1     8     8     2
 0.0000000009     1     8     8     7
 0.0089073241     1     8     8    10
 -0.0000000375     1     8     9     1
 -0.0046236456     1     8     9     2
 -0.0010306455     1     8     9     7
 -0.0000000045     1     8     9    10
 -0.0000000049     1     8    10     9
 -0.0006873706     1     9     2     8
 -0.0000000055     1     9     3     5
 0.0000542686     1     9     3     6
 0.0030532026     1     9     4     5
 -0.0000000001     1     9     4     6
 -0.0000000049     1     9     5     3
 0.0039583013     1     9     5     4
 0.0005303155     1     9     6     3
 -0.0000000015     1     9     6     4
 -0.0000007047     1     9     7     8
 -0.0000000375     1     9     8     1
 -0.0052197854     1     9     8     2
 -0.0010313659     1     9     8     7
 0.0000000004     1     9     8    10
 -0.1851401944     1     9     9     1
 0.0000000376     1     9     9     2
 -0.0000000008     1     9     9     7
 0.0082252545     1     9     9    10
 0.0000000049     1     9    10     8
 -0.0000000335     1    10     2     1
 -0.0201441119     1    10     2     2
 0.0000127436     1    10     2     7
 -0.0190862696     1    10     3     3
 0.0000000048     1    10     3     4
 0.0000000030     1    10     4     3
 -0.0209818364     1    10     4     4
 -0.0180253877     1    10     5     5
 0.0000000023     1    10     5     6
 -0.0000000003     1    10     6     5
 -0.0175255350     1    10     6     6
 -0.0000000497     1    10     7     1
 -0.0072057913     1    10     7     2
 -0.0117646217     1    10     7     7
 -0.0089073241     1    10     8     8
 -0.0000000004     1    10     8     9
 0.0000000045     1    10     9     8
 -0.0082252545     1    10     9     9
 -0.1790242237     1    10    10     1
 0.0000000070     1    10    10     2
 -0.0000000066     1    10    10     7
 -0.2587184028     2     1     1     2
 0.0000032931     2     1     1     7
 -0.0000000335     2     1     1    10
 0.0000000087     2     1     3     3
 -0.0011659833     2     1     3     4
 -0.0019261015     2     1     4     3
 -0.0000000094     2     1     4     4
 -0.0000000117     2     1     5     5
 -0.0028624046     2     1     5     6
 -0.0011644325     2     1     6     5
 0.0000000111     2     1     6     6
 0.0000000001     2     1     7     2
 -0.0000000002     2     1     7     7
 0.0072105844     2     1     7    10
 0.0000000374     2     1     8     8
 0.0046236456     2     1     8     9
 0.0052197854     2     1     9     8
 -0.0000000376     2     1     9     9
 0.0201441119     2     1    10     2
 0.0072057913     2     1    10     7
 -0.0000000070     2     1    10    10
 0.2587184028     2     2     1     1
 -0.0000000001     2     2     1     7
 -0.0201441119     2     2     1    10
 0.2696817418     2     2     3     3
 0.0000000090     2     2     3     4
 0.0000000090     2     2     4     3
 0.2665990727     2     2     4     4
 0.2567256845     2     2     5     5
 0.0000000114     2     2     5     6
 0.0000000114     2     2     6     5
 0.2607489489     2     2     6     6
 -0.0000000001     2     2     7     1
 0.1895630180     2     2     7     7
 -0.0000000498     2     2     7    10
 0.1850606850     2     2     8     8
 -0.0000000375     2     2     8     9
 -0.0000000375     2     2     9     8
 0.1752097715     2     2     9     9
 -0.0201441119     2     2    10     1
 -0.0000000498     2     2    10     7
 0.1747921470     2     2    10    10
 0.0000715350     2     3     1     4
 -0.0000000087     2     3     3     1
 -0.2696817418     2     3     3     2
 0.0009547671     2     3     3     7
 -0.0000000294     2     3     3    10
 0.0019261015     2     3     4     1
 -0.0000000090     2     3     4     2
 -0.0000000025     2     3     4     7
 -0.0003966731     2     3     4    10
 -0.0000000016     2     3     5     8
 0.0020410088     2     3     5     9
 -0.0038470101     2     3     6     8
 0.0000000052     2     3     6     9
 -0.0000000004     2     3     8     5
 -0.0002146512     2     3     8     6
 -0.0000867503     2     3     9     5
 0.0000000008     2     3     9     6
 0.0009326121     2     3    10     4
 -0.0000715350     2     4     1     3
 0.0011659833     2     4     3     1
 -0.0000000090     2     4     3     2
 -0.0000000025     2     4     3     7
 -0.0014358709     2     4     3    10
 0.0000000094     2     4     4     1
 -0.2665990727     2     4     4     2
 -0.0008760458     2     4     4     7
 -0.0000000372     2     4     4    10
 -0.0005832815     2     4     5     8
 0.0000000119     2     4     5     9
 -0.0000000050     2     4     6     8
 0.0012263697     2     4     6     9
 -0.0001942613     2     4     8     5
 0.0000000003     2     4     8     6
 0.0000000007     2     4     9     5
 0.0001076817     2     4     9     6
 -0.0009326121     2     4    10     3
 -0.0007928821     2     5     1     6
 -0.0000000003     2     5     3     8
 0.0020777989     2     5     3     9
 -0.0001064805     2     5     4     8
 0.0000000088     2     5     4     9
 0.0000000117     2     5     5     1
 -0.2567256845     2     5     5     2
 -0.0002734432     2     5     5     7
 -0.0000000305     2     5     5    10
 0.0011644325     2     5     6     1
 -0.0000000114     2     5     6     2
 -0.0000000008     2     5     6     7
 0.0005321216     2     5     6    10
 0.0000000004     2     5     8     3
 0.0001942613     2     5     8     4
 0.0000867503     2     5     9     3
 -0.0000000007     2     5     9     4
 0.0016343320     2     5    10     6
 0.0007928821     2     6     1     5
 -0.0029441980     2     6     3     8
 0.0000000031     2     6     3     9
 -0.0000000055     2     6     4     8
 0.0007619015     2     6     4     9
 0.0028624046     2     6     5     1
 -0.0000000114     2     6     5     2
 -0.0000000008     2     6     5     7
 -0.0009972241     2     6     5    10
 -0.0000000111     2     6     6     1
 -0.2607489489     2     6     6     2
 0.0003440937     2     6     6     7
 -0.0000000286     2     6     6    10
 0.0002146512     2     6     8     3
 -0.0000000003     2     6     8     4
 -0.0000000008     2     6     9     3
 -0.0001076817     2     6     9     4
 -0.0016343320     2     6    10     5
 -0.0000032931     2     7     1     1
 0.0000000001     2     7     1     2
 0.0000127436     2     7     1    10
 -0.0009547671     2     7     3     3
 0.0000000025     2     7     3     4
 0.0000000025     2     7     4     3
 0.0008760458     2     7     4     4
 0.0002734432     2     7     5     5
 0.0000000008     2     7     5     6
 0.0000000008     2     7     6     5
 -0.0003440937     2     7     6     6
 0.0000000002     2     7     7     1
 -0.1895630180     2     7     7     2
 -0.0000000196     2     7     7    10
 -0.0009541558     2     7     8     8
 -0.0000000011     2     7     8     9
 -0.0000000010     2     7     9     8
 0.0009433184     2     7     9     9
 -0.0072057913     2     7    10     1
 0.0000000498     2     7    10     2
 0.0012770576     2     7    10    10
 -0.0006873706     2     8     1     9
 0.0000000003     2     8     3     5
 0.0029441980     2     8     3     6
 0.0001064805     2     8     4     5
 0.0000000055     2     8     4     6
 0.0000000016     2     8     5     3
 0.0005832815     2     8     5     4
 0.0038470101     2     8     6     3
 0.0000000050     2     8     6     4
 -0.0000000374     2     8     8     1
 -0.1850606850     2     8     8     2
 0.0009541558     2     8     8     7
 -0.0000000163     2     8     8    10
 -0.0052197854     2     8     9     1
 0.0000000375     2     8     9     2
 0.0000000010     2     8     9     7
 -0.0018109765     2     8     9    10
 -0.0029437338     2     8    10     9
 0.0006873706     2     9     1     8
 -0.0020777989     2     9     3     5
 -0.0000000031     2     9     3     6
 -0.0000000088     2     9     4     5
 -0.0007619015     2     9     4     6
 -0.0020410088     2     9     5     3
 -0.0000000119     2     9     5     4
 -0.0000000052     2     9     6     3
 -0.0012263697     2     9     6     4
 -0.0046236456     2     9     8     1
 0.0000000375     2     9     8     2
 0.0000000011     2     9     8     7
 0.0011316400     2     9     8    10
 0.0000000376     2     9     9     1
 -0.1752097715     2     9     9     2
 -0.0009433184     2     9     9     7
 -0.0000000122     2     9     9    10
 0.0029437338     2     9    10     8
 0.0000000335     2    10     1     1
 0.0201441119     2    10     1     2
 -0.0000127436     2    10     1     7
 0.0000000294     2    10     3     3
 0.0014358709     2    10     3     4
 0.0003966731     2    10     4     3
 0.0000000372     2    10     4     4
 0.0000000305     2    10     5     5
 0.0009972241     2    10     5     6
 -0.0005321216     2    10     6     5
 0.0000000286     2    10     6     6
 -0.0072105844     2    10     7     1
 0.0000000498     2    10     7     2
 0.0000000196     2    10     7     7
 0.0000000163     2    10     8     8
 -0.0011316400     2    10     8     9
 0.0018109765     2    10     9     8
 0.0000000122     2    10     9     9
 0.0000000070     2    10    10     1
 -0.1747921470     2    10    10     2
 -0.0012770576     2    10    10     7
 -0.2668051498     3     1     1     3
 0.0000000091     3     1     1     4
 -0.0000000087     3     1     2     3
 0.0011659833     3     1     2     4
 -0.0000715350     3     1     4     2
 -0.0000005677     3     1     4     7
 0.0000000016     3     1     4    10
 0.0001071471     3     1     5     8
 -0.0000000003     3     1     5     9
 -0.0000000007     3     1     6     8
 -0.0001940384     3     1     6     9
 0.0000000027     3     1     7     3
 0.0008729294     3     1     7     4
 0.0013083742     3     1     8     5
 -0.0000000118     3     1     8     6
 0.0000000049     3     1     9     5
 -0.0005303155     3     1     9     6
 0.0190862696     3     1    10     3
 -0.0000000030     3     1    10     4
 -0.0000000087     3     2     1     3
 0.0019261015     3     2     1     4
 -0.2696817418     3     2     2     3
 -0.0000000090     3     2     2     4
 0.0000715350     3     2     4     1
 0.0009326121     3     2     4    10
 -0.0000000004     3     2     5     8
 -0.0000867503     3     2     5     9
 -0.0002146512     3     2     6     8
 0.0000000008     3     2     6     9
 0.0009547671     3     2     7     3
 -0.0000000025     3     2     7     4
 -0.0000000016     3     2     8     5
 -0.0038470101     3     2     8     6
 0.0020410088     3     2     9     5
 0.0000000052     3     2     9     6
 -0.0000000294     3     2    10     3
 -0.0003966731     3     2    10     4
 0.2668051498     3     3     1     1
 0.0000000087     3     3     1     2
 -0.0000000027     3     3     1     7
 -0.0190862696     3     3     1    10
 0.0000000087     3     3     2     1
 0.2696817418     3     3     2     2
 -0.0009547671     3     3     2     7
 0.0000000294     3     3     2    10
 0.2505054226     3     3     4     4
 0.2309005970     3     3     5     5
 -0.0000000008     3     3     5     6
 -0.0000000008     3     3     6     5
 0.2406940808     3     3     6     6
 -0.0000000027     3     3     7     1
 -0.0009547671     3     3     7     2
 0.1878694777     3     3     7     7
 -0.0000000094     3     3     7    10
 0.1843825934     3     3     8     8
 -0.0000000134     3     3     8     9
 -0.0000000134     3     3     9     8
 0.1694559061     3     3     9     9
 -0.0190862696     3     3    10     1
 0.0000000294     3     3    10     2
 -0.0000000094     3     3    10     7
 0.1680568608     3     3    10    10
 -0.0000000091     3     4     1     1
 -0.0019261015     3     4     1     2
 -0.0008739613     3     4     1     7
 0.0000000048     3     4     1    10
 -0.0011659833     3     4     2     1
 0.0000000090     3     4     2     2
 0.0000000025     3     4     2     7
 0.0014358709     3     4     2    10
 -0.2505054226     3     4     4     3
 -0.0000000008     3     4     5     5
 0.0273484274     3     4     5     6
 -0.0175581215     3     4     6     5
 0.0000000008     3     4     6     6
 -0.0008729294     3     4     7     1
 0.0000000025     3     4     7     2
 -0.0087770275     3     4     7    10
 -0.0000000134     3     4     8     8
 -0.0076160550     3     4     8     9
 -0.0073110188     3     4     9     8
 0.0000000134     3     4     9     9
 0.0000000030     3     4    10     1
 0.0003966731     3     4    10     2
 -0.0087744719     3     4    10     7
 -0.0000000122     3     4    10    10
 -0.0008431146     3     5     1     8
 -0.0000000055     3     5     1     9
 0.0000000003     3     5     2     8
 -0.0020777989     3     5     2     9
 0.0447439395     3     5     4     6
 -0.2309005970     3     5     5     3
 0.0000000008     3     5     5     4
 0.0000000008     3     5     6     3
 0.0175581215     3     5     6     4
 0.0000000247     3     5     7     8
 0.0246930055     3     5     7     9
 -0.0013083742     3     5     8     1
 0.0000000016     3     5     8     2
 0.0000000246     3     5     8     7
 0.0160652159     3     5     8    10
 -0.0000000049     3     5     9     1
 -0.0020410088     3     5     9     2
 0.0244720887     3     5     9     7
 0.0000000041     3     5     9    10
 0.0161327083     3     5    10     8
 0.0000000040     3     5    10     9
 0.0000000087     3     6     1     8
 0.0000542686     3     6     1     9
 0.0029441980     3     6     2     8
 -0.0000000031     3     6     2     9
 -0.0447439395     3     6     4     5
 0.0000000008     3     6     5     3
 -0.0273484274     3     6     5     4
 -0.2406940808     3     6     6     3
 -0.0000000008     3     6     6     4
 0.0246922287     3     6     7     8
 -0.0000000247     3     6     7     9
 0.0000000118     3     6     8     1
 0.0038470101     3     6     8     2
 0.0244742454     3     6     8     7
 -0.0000000163     3     6     8    10
 0.0005303155     3     6     9     1
 -0.0000000052     3     6     9     2
 -0.0000000246     3     6     9     7
 0.0101635688     3     6     9    10
 -0.0000000163     3     6    10     8
 0.0102027098     3     6    10     9
 0.0000000027     3     7     1     3
 0.0008739613     3     7     1     4
 0.0009547671     3     7     2     3
 -0.0000000025     3     7     2     4
 0.0000005677     3     7     4     1
 -0.0000041776     3     7     4    10
 0.0000000001     3     7     5     8
 0.0001039933     3     7     5     9
 0.0001009751     3     7     6     8
 -0.0000000001     3     7     6     9
 -0.1878694777     3     7     7     3
 -0.0000000246     3     7     8     5
 -0.0244742454     3     7     8     6
 -0.0244720887     3     7     9     5
 0.0000000246     3     7     9     6
 0.0000000094     3     7    10     3
 0.0087744719     3     7    10     4
 0.0008431146     3     8     1     5
 -0.0000000087     3     8     1     6
 -0.0000000003     3     8     2     5
 -0.0029441980     3     8     2     6
 -0.0002771317     3     8     4     9
 -0.0001071471     3     8     5     1
 0.0000000004     3     8     5     2
 -0.0000000001     3     8     5     7
 -0.0000316353     3     8     5    10
 0.0000000007     3     8     6     1
 0.0002146512     3     8     6     2
 -0.0001009751     3     8     6     7
 -0.0000000247     3     8     7     5
 -0.0246922287     3     8     7     6
 -0.1843825934     3     8     8     3
 0.0000000134     3     8     8     4
 0.0000000134     3     8     9     3
 0.0073110188     3     8     9     4
 -0.0161327083     3     8    10     5
 0.0000000163     3     8    10     6
 0.0000000055     3     9     1     5
 -0.0000542686     3     9     1     6
 0.0020777989     3     9     2     5
 0.0000000031     3     9     2     6
 0.0002771317     3     9     4     8
 0.0000000003     3     9     5     1
 0.0000867503     3     9     5     2
 -0.0001039933     3     9     5     7
 0.0000000001     3     9     5    10
 0.0001940384     3     9     6     1
 -0.0000000008     3     9     6     2
 0.0000000001     3     9     6     7
 -0.0000042024     3     9     6    10
 -0.0246930055     3     9     7     5
 0.0000000247     3     9     7     6
 0.0000000134     3     9     8     3
 0.0076160550     3     9     8     4
 -0.1694559061     3     9     9     3
 -0.0000000134     3     9     9     4
 -0.0000000040     3     9    10     5
 -0.0102027098     3     9    10     6
 0.0190862696     3    10     1     3
 -0.0000000048     3    10     1     4
 -0.0000000294     3    10     2     3
 -0.0014358709     3    10     2     4
 -0.0000000016     3    10     4     1
 -0.0009326121     3    10     4     2
 0.0000041776     3    10     4     7
 0.0000316353     3    10     5     8
 -0.0000000001     3    10     5     9
 0.0000042024     3    10     6     9
 0.0000000094     3    10     7     3
 0.0087770275     3    10     7     4
 -0.0160652159     3    10     8     5
 0.0000000163     3    10     8     6
 -0.0000000041     3    10     9     5
 -0.0101635688     3    10     9     6
 -0.1680568608     3    10    10     3
 0.0000000122     3    10    10     4
 0.0000000091     4     1     1     3
 -0.2699067385     4     1     1     4
 0.0019261015     4     1     2     3
 0.0000000094     4     1     2     4
 0.0000715350     4     1     3     2
 0.0000005677     4     1     3     7
 -0.0000000016     4     1     3    10
 -0.0000000008     4     1     5     8
 -0.0002141890     4     1     5     9
 -0.0000866553     4     1     6     8
 0.0000000004     4     1     6     9
 0.0008739613     4     1     7     3
 -0.0000000023     4     1     7     4
 -0.0000000054     4     1     8     5
 0.0021196500     4     1     8     6
 -0.0039583013     4     1     9     5
 0.0000000015     4     1     9     6
 -0.0000000048     4     1    10     3
 0.0209818364     4     1    10     4
 0.0011659833     4     2     1     3
 0.0000000094     4     2     1     4
 -0.0000000090     4     2     2     3
 -0.2665990727     4     2     2     4
 -0.0000715350     4     2     3     1
 -0.0009326121     4     2     3    10
 -0.0001942613     4     2     5     8
 0.0000000007     4     2     5     9
 0.0000000003     4     2     6     8
 0.0001076817     4     2     6     9
 -0.0000000025     4     2     7     3
 -0.0008760458     4     2     7     4
 -0.0005832815     4     2     8     5
 -0.0000000050     4     2     8     6
 0.0000000119     4     2     9     5
 0.0012263697     4     2     9     6
 -0.0014358709     4     2    10     3
 -0.0000000372     4     2    10     4
 -0.0000000091     4     3     1     1
 -0.0011659833     4     3     1     2
 -0.0008729294     4     3     1     7
 0.0000000030     4     3     1    10
 -0.0019261015     4     3     2     1
 0.0000000090     4     3     2     2
 0.0000000025     4     3     2     7
 0.0003966731     4     3     2    10
 -0.2505054226     4     3     3     4
 -0.0000000008     4     3     5     5
 -0.0175581215     4     3     5     6
 0.0273484274     4     3     6     5
 0.0000000008     4     3     6     6
 -0.0008739613     4     3     7     1
 0.0000000025     4     3     7     2
 -0.0087744719     4     3     7    10
 -0.0000000134     4     3     8     8
 -0.0073110188     4     3     8     9
 -0.0076160550     4     3     9     8
 0.0000000134     4     3     9     9
 0.0000000048     4     3    10     1
 0.0014358709     4     3    10     2
 -0.0087770275     4     3    10     7
 -0.0000000122     4     3    10    10
 0.2699067385     4     4     1     1
 -0.0000000094     4     4     1     2
 0.0000000023     4     4     1     7
 -0.0209818364     4     4     1    10
 -0.0000000094     4     4     2     1
 0.2665990727     4     4     2     2
 0.0008760458     4     4     2     7
 0.0000000372     4     4     2    10
 0.2505054226     4     4     3     3
 0.2406887464     4     4     5     5
 0.0000000008     4     4     5     6
 0.0000000008     4     4     6     5
 0.2308999223     4     4     6     6
 0.0000000023     4     4     7     1
 0.0008760458     4     4     7     2
 0.1878691256     4     4     7     7
 0.0000000094     4     4     7    10
 0.1694553727     4     4     8     8
 0.0000000134     4     4     8     9
 0.0000000134     4     4     9     8
 0.1843832574     4     4     9     9
 -0.0209818364     4     4    10     1
 0.0000000372     4     4    10     2
 0.0000000094     4     4    10     7
 0.1777920748     4     4    10    10
 0.0000000032     4     5     1     8
 0.0030532026     4     5     1     9
 0.0001064805     4     5     2     8
 -0.0000000088     4     5     2     9
 -0.0447439395     4     5     3     6
 0.0000000008     4     5     5     3
 -0.2406887464     4     5     5     4
 -0.0273484274     4     5     6     3
 -0.0000000008     4     5     6     4
 -0.0246940955     4     5     7     8
 0.0000000247     4     5     7     9
 0.0000000054     4     5     8     1
 0.0005832815     4     5     8     2
 -0.0244745581     4     5     8     7
 -0.0000000075     4     5     8    10
 0.0039583013     4     5     9     1
 -0.0000000119     4     5     9     2
 0.0000000246     4     5     9     7
 -0.0212561013     4     5     9    10
 -0.0000000074     4     5    10     8
 -0.0212780516     4     5    10     9
 -0.0021551934     4     6     1     8
 -0.0000000001     4     6     1     9
 0.0000000055     4     6     2     8
 -0.0007619015     4     6     2     9
 0.0447439395     4     6     3     5
 0.0175581215     4     6     5     3
 -0.0000000008     4     6     5     4
 -0.0000000008     4     6     6     3
 -0.2308999223     4     6     6     4
 0.0000000247     4     6     7     8
 0.0246935320     4     6     7     9
 -0.0021196500     4     6     8     1
 0.0000000050     4     6     8     2
 0.0000000246     4     6     8     7
 0.0153577572     4     6     8    10
 -0.0000000015     4     6     9     1
 -0.0012263697     4     6     9     2
 0.0244738359     4     6     9     7
 0.0000000047     4     6     9    10
 0.0153489475     4     6    10     8
 0.0000000049     4     6    10     9
 0.0008729294     4     7     1     3
 -0.0000000023     4     7     1     4
 -0.0000000025     4     7     2     3
 -0.0008760458     4     7     2     4
 -0.0000005677     4     7     3     1
 0.0000041776     4     7     3    10
 -0.0001024349     4     7     5     8
 0.0000000001     4     7     5     9
 0.0000000001     4     7     6     8
 0.0001024654     4     7     6     9
 -0.1878691256     4     7     7     4
 0.0244745581     4     7     8     5
 -0.0000000246     4     7     8     6
 -0.0000000246     4     7     9     5
 -0.0244738359     4     7     9     6
 0.0087770275     4     7    10     3
 -0.0000000094     4     7    10     4
 -0.0000000032     4     8     1     5
 0.0021551934     4     8     1     6
 -0.0001064805     4     8     2     5
 -0.0000000055     4     8     2     6
 0.0002771317     4     8     3     9
 0.0000000008     4     8     5     1
 0.0001942613     4     8     5     2
 0.0001024349     4     8     5     7
 0.0000866553     4     8     6     1
 -0.0000000003     4     8     6     2
 -0.0000000001     4     8     6     7
 0.0000263245     4     8     6    10
 0.0246940955     4     8     7     5
 -0.0000000247     4     8     7     6
 0.0000000134     4     8     8     3
 -0.1694553727     4     8     8     4
 0.0076160550     4     8     9     3
 -0.0000000134     4     8     9     4
 0.0000000074     4     8    10     5
 -0.0153489475     4     8    10     6
 -0.0030532026     4     9     1     5
 0.0000000001     4     9     1     6
 0.0000000088     4     9     2     5
 0.0007619015     4     9     2     6
 -0.0002771317     4     9     3     8
 0.0002141890     4     9     5     1
 -0.0000000007     4     9     5     2
 -0.0000000001     4     9     5     7
 0.0000037315     4     9     5    10
 -0.0000000004     4     9     6     1
 -0.0001076817     4     9     6     2
 -0.0001024654     4     9     6     7
 -0.0000000001     4     9     6    10
 -0.0000000247     4     9     7     5
 -0.0246935320     4     9     7     6
 0.0073110188     4     9     8     3
 -0.0000000134     4     9     8     4
 -0.0000000134     4     9     9     3