&FCI NORB= 13,NELEC= 14,MS2=0,
 ORBSYM=1,1,1,1,1,1,1,1,1,1,1,1,1
 ISYM=1,
&END
 0.1727012620     1     1     2     2
 -0.0000734018     1     1     2     4
 0.0020100076     1     1     2    10
 0.5409047358     1     1     3     3
 -0.0000000052     1     1     3     4
 -0.0000418918     1     1     3     5
 -0.0000000003     1     1     3    10
 -0.0703802775     1     1     3    11
 -0.0000734018     1     1     4     2
 -0.0000000052     1     1     4     3
 0.5448183646     1     1     4     4
 -0.0000000007     1     1     4     5
 0.0217850124     1     1     4    10
 0.0000000009     1     1     4    11
 -0.0000418918     1     1     5     3
 -0.0000000007     1     1     5     4
 0.5090496448     1     1     5     5
 0.0000000047     1     1     5    10
 0.1657574244     1     1     5    11
 0.5140921413     1     1     6     6
 0.0000000021     1     1     6     8
 -0.0000000043     1     1     6     9
 -0.0000600806     1     1     6    12
 -0.1944443307     1     1     6    13
 0.5140921413     1     1     7     7
 0.0000000043     1     1     7     8
 0.0000000020     1     1     7     9
 -0.1944443307     1     1     7    12
 0.0000600806     1     1     7    13
 0.0000000021     1     1     8     6
 0.0000000043     1     1     8     7
 0.5198606291     1     1     8     8
 -0.0000000027     1     1     8    12
 -0.0000000015     1     1     8    13
 -0.0000000043     1     1     9     6
 0.0000000020     1     1     9     7
 0.5198606291     1     1     9     9
 -0.0000000010     1     1     9    12
 0.0000000027     1     1     9    13
 0.0020100076     1     1    10     2
 -0.0000000003     1     1    10     3
 0.0217850124     1     1    10     4
 0.0000000047     1     1    10     5
 0.5355479744     1     1    10    10
 0.0000000032     1     1    10    11
 -0.0703802775     1     1    11     3
 0.0000000009     1     1    11     4
 0.1657574244     1     1    11     5
 0.0000000032     1     1    11    10
 0.5267290462     1     1    11    11
 -0.0000600806     1     1    12     6
 -0.1944443307     1     1    12     7
 -0.0000000027     1     1    12     8
 -0.0000000010     1     1    12     9
 0.5051525526     1     1    12    12
 -0.1944443307     1     1    13     6
 0.0000600806     1     1    13     7
 -0.0000000015     1     1    13     8
 0.0000000027     1     1    13     9
 0.5051525526     1     1    13    13
 -0.1727012620     1     2     2     1
 -0.0000313042     1     2     2     3
 0.0018539766     1     2     2     5
 0.0017682379     1     2     2    11
 0.3702199721     1     2     3     4
 0.0172425782     1     2     3    10
 0.0000734018     1     2     4     1
 0.3702290992     1     2     4     3
 0.0431773910     1     2     4     5
 -0.0623043531     1     2     4    11
 0.0431761003     1     2     5     4
 -0.3260810030     1     2     5    10
 0.0000000005     1     2     6     6
 0.0000000009     1     2     6     7
 -0.1419119713     1     2     6     8
 0.3041034553     1     2     6     9
 -0.0000000003     1     2     6    12
 -0.0000000001     1     2     6    13
 0.0000000009     1     2     7     6
 -0.0000000004     1     2     7     7
 -0.3041034553     1     2     7     8
 -0.1419119713     1     2     7     9
 0.0000000001     1     2     7    12
 -0.0000000003     1     2     7    13
 -0.1419022898     1     2     8     6
 -0.3040827086     1     2     8     7
 -0.0000000005     1     2     8     8
 0.0000000010     1     2     8     9
 0.1871543203     1     2     8    12
 0.0872664411     1     2     8    13
 0.3040827086     1     2     9     6
 -0.1419022898     1     2     9     7
 0.0000000010     1     2     9     8
 0.0000000004     1     2     9     9
 0.0872664411     1     2     9    12
 -0.1871543203     1     2     9    13
 -0.0020100076     1     2    10     1
 0.0172456084     1     2    10     3
 -0.3260393924     1     2    10     5
 -0.2239173771     1     2    10    11
 -0.0623253761     1     2    11     4
 -0.2239625000     1     2    11    10
 -0.0000000003     1     2    12     6
 0.0000000001     1     2    12     7
 0.1871766862     1     2    12     8
 0.0872768699     1     2    12     9
 -0.0000000001     1     2    12    12
 0.0000000002     1     2    12    13
 -0.0000000001     1     2    13     6
 -0.0000000003     1     2    13     7
 0.0872768699     1     2    13     8
 -0.1871766862     1     2    13     9
 0.0000000002     1     2    13    12
 0.0000000001     1     2    13    13
 0.0000313042     1     3     2     2
 0.0000000330     1     3     2     4
 -0.0000036053     1     3     2    10
 -0.5409047358     1     3     3     1
 0.0010957334     1     3     3     5
 0.0015465285     1     3     3    11
 0.0000000052     1     3     4     1
 -0.3702290992     1     3     4     2
 -0.0000915098     1     3     4     4
 0.0014814508     1     3     4    10
 0.0000418918     1     3     5     1
 -0.0176049266     1     3     5     5
 -0.0000000001     1     3     5    10
 -0.0205737410     1     3     5    11
 -0.0184195308     1     3     6     6
 0.0000000001     1     3     6     9
 0.0000069939     1     3     6    12
 0.0226349789     1     3     6    13
 -0.0184195308     1     3     7     7
 -0.0000000001     1     3     7     8
 0.0226349789     1     3     7    12
 -0.0000069939     1     3     7    13
 -0.0000000001     1     3     8     7
 -0.0182128494     1     3     8     8
 0.0000000001     1     3     8    12
 0.0000000001     1     3     8    13
 0.0000000001     1     3     9     6
 -0.0182128494     1     3     9     9
 -0.0000000001     1     3     9    13
 0.0000000003     1     3    10     1
 -0.0172456084     1     3    10     2
 0.0007630482     1     3    10     4
 -0.0000000001     1     3    10     5
 -0.0189036437     1     3    10    10
 -0.0000000001     1     3    10    11
 0.0703802775     1     3    11     1
 -0.0137867420     1     3    11     5
 -0.0000000001     1     3    11    10
 -0.0170031492     1     3    11    11
 0.0000046247     1     3    12     6
 0.0149673111     1     3    12     7
 0.0000000001     1     3    12     8
 -0.0195224527     1     3    12    12
 0.0149673111     1     3    13     6
 -0.0000046247     1     3    13     7
 -0.0000000001     1     3    13     9
 -0.0195224527     1     3    13    13
 0.0000734018     1     4     2     1
 -0.0000000330     1     4     2     3
 -0.0000005766     1     4     2     5
 0.0000134163     1     4     2    11
 0.0000000052     1     4     3     1
 -0.3702199721     1     4     3     2
 0.0006818552     1     4     3    10
 -0.5448183646     1     4     4     1
 0.0000915098     1     4     4     3
 0.0000593143     1     4     4     5
 -0.0002857329     1     4     4    11
 0.0000000007     1     4     5     1
 -0.0431761003     1     4     5     2
 0.0000000001     1     4     5     5
 0.0182655542     1     4     5    10
 0.0000000001     1     4     5    11
 0.0000000001     1     4     6     6
 0.0077917905     1     4     6     8
 -0.0166970438     1     4     6     9
 -0.0000000001     1     4     6    13
 0.0000000001     1     4     7     7
 0.0166970438     1     4     7     8
 0.0077917905     1     4     7     9
 -0.0000000001     1     4     7    12
 0.0074985030     1     4     8     6
 0.0160685575     1     4     8     7
 0.0000000001     1     4     8     8
 -0.0203513099     1     4     8    12
 -0.0094894223     1     4     8    13
 -0.0160685575     1     4     9     6
 0.0074985030     1     4     9     7
 0.0000000001     1     4     9     9
 -0.0094894223     1     4     9    12
 0.0203513099     1     4     9    13
 -0.0217850124     1     4    10     1
 -0.0007630482     1     4    10     3
 0.0174924914     1     4    10     5
 0.0000000001     1     4    10    10
 0.0214026266     1     4    10    11
 -0.0000000009     1     4    11     1
 0.0623253761     1     4    11     2
 0.0000000001     1     4    11     5
 0.0154745562     1     4    11    10
 0.0000000002     1     4    11    11
 -0.0000000002     1     4    12     7
 -0.0143082620     1     4    12     8
 -0.0066716659     1     4    12     9
 0.0000000002     1     4    12    12
 -0.0000000001     1     4    13     6
 -0.0066716659     1     4    13     8
 0.0143082620     1     4    13     9
 0.0000000002     1     4    13    13
 -0.0018539766     1     5     2     2
 0.0000005766     1     5     2     4
 -0.0000427602     1     5     2    10
 0.0000418918     1     5     3     1
 -0.0010957334     1     5     3     3
 -0.0066189253     1     5     3    11
 0.0000000007     1     5     4     1
 -0.0431773910     1     5     4     2
 -0.0000593143     1     5     4     4
 0.0005418203     1     5     4    10
 -0.5090496448     1     5     5     1
 0.0176049266     1     5     5     3
 -0.0000000001     1     5     5     4
 -0.0035705511     1     5     5    11
 -0.0017947861     1     5     6     6
 0.0000003856     1     5     6    12
 0.0012479690     1     5     6    13
 -0.0017947861     1     5     7     7
 0.0012479690     1     5     7    12
 -0.0000003856     1     5     7    13
 -0.0018974069     1     5     8     8
 -0.0018974069     1     5     9     9
 -0.0000000047     1     5    10     1
 0.3260393924     1     5    10     2
 0.0000000001     1     5    10     3
 -0.0174924914     1     5    10     4
 -0.0039448541     1     5    10    10
 -0.1657574244     1     5    11     1
 0.0137867420     1     5    11     3
 -0.0000000001     1     5    11     4
 -0.0101273416     1     5    11    11
 0.0000004215     1     5    12     6
 0.0013641693     1     5    12     7
 -0.0025706067     1     5    12    12
 0.0013641693     1     5    13     6
 -0.0000004215     1     5    13     7
 -0.0025706067     1     5    13    13
 -0.0000094412     1     6     2     8
 0.0000202316     1     6     2     9
 0.0000023312     1     6     3    12
 0.0075445572     1     6     3    13
 0.0001987118     1     6     4     8
 -0.0004258198     1     6     4     9
 -0.0000000468     1     6     5    12
 -0.0001514115     1     6     5    13
 -0.5140921413     1     6     6     1
 -0.0000000005     1     6     6     2
 0.0184195308     1     6     6     3
 -0.0000000001     1     6     6     4
 0.0017947861     1     6     6     5
 -0.0038405892     1     6     6    11
 -0.0000000009     1     6     7     2
 -0.0000000021     1     6     8     1
 0.1419022898     1     6     8     2
 -0.0074985030     1     6     8     4
 -0.0009053256     1     6     8    10
 0.0000000043     1     6     9     1
 -0.3040827086     1     6     9     2
 -0.0000000001     1     6     9     3
 0.0160685575     1     6     9     4
 0.0019400241     1     6     9    10
 -0.0000147899     1     6    10     8
 0.0000316933     1     6    10     9
 0.0000002735     1     6    11    12
 0.0008850784     1     6    11    13
 0.0000600806     1     6    12     1
 0.0000000003     1     6    12     2
 -0.0000046247     1     6    12     3
 -0.0000004215     1     6    12     5
 0.0000021649     1     6    12    11
 0.1944443307     1     6    13     1
 0.0000000001     1     6    13     2
 -0.0149673111     1     6    13     3
 0.0000000001     1     6    13     4
 -0.0013641693     1     6    13     5
 0.0070064693     1     6    13    11
 -0.0000202316     1     7     2     8
 -0.0000094412     1     7     2     9
 0.0075445572     1     7     3    12
 -0.0000023312     1     7     3    13
 0.0004258198     1     7     4     8
 0.0001987118     1     7     4     9
 -0.0001514115     1     7     5    12
 0.0000000468     1     7     5    13
 -0.0000000009     1     7     6     2
 -0.5140921413     1     7     7     1
 0.0000000004     1     7     7     2
 0.0184195308     1     7     7     3
 -0.0000000001     1     7     7     4
 0.0017947861     1     7     7     5
 -0.0038405892     1     7     7    11
 -0.0000000043     1     7     8     1
 0.3040827086     1     7     8     2
 0.0000000001     1     7     8     3
 -0.0160685575     1     7     8     4
 -0.0019400241     1     7     8    10
 -0.0000000020     1     7     9     1
 0.1419022898     1     7     9     2
 -0.0074985030     1     7     9     4
 -0.0009053256     1     7     9    10
 -0.0000316933     1     7    10     8
 -0.0000147899     1     7    10     9
 0.0008850784     1     7    11    12
 -0.0000002735     1     7    11    13
 0.1944443307     1     7    12     1
 -0.0000000001     1     7    12     2
 -0.0149673111     1     7    12     3
 0.0000000002     1     7    12     4
 -0.0013641693     1     7    12     5
 0.0070064693     1     7    12    11
 -0.0000600806     1     7    13     1
 0.0000000003     1     7    13     2
 0.0000046247     1     7    13     3
 0.0000004215     1     7    13     5
 -0.0000021649     1     7    13    11
 0.0000094412     1     8     2     6
 0.0000202316     1     8     2     7
 -0.0000224646     1     8     2    12
 -0.0000104748     1     8     2    13
 0.0000000001     1     8     3    13
 -0.0001987118     1     8     4     6
 -0.0004258198     1     8     4     7
 -0.0059116653     1     8     4    12
 -0.0027564952     1     8     4    13
 -0.0000000021     1     8     6     1
 0.1419119713     1     8     6     2
 -0.0077917905     1     8     6     4
 -0.0009613592     1     8     6    10
 -0.0000000043     1     8     7     1
 0.3041034553     1     8     7     2
 0.0000000001     1     8     7     3
 -0.0166970438     1     8     7     4
 -0.0020600986     1     8     7    10
 -0.5198606291     1     8     8     1
 0.0000000005     1     8     8     2
 0.0182128494     1     8     8     3
 -0.0000000001     1     8     8     4
 0.0018974069     1     8     8     5
 -0.0042856663     1     8     8    11
 -0.0000000010     1     8     9     2
 0.0000147899     1     8    10     6
 0.0000316933     1     8    10     7
 -0.0003658841     1     8    10    12
 -0.0001706047     1     8    10    13
 0.0000000027     1     8    12     1
 -0.1871766862     1     8    12     2
 -0.0000000001     1     8    12     3
 0.0143082620     1     8    12     4
 0.0011882821     1     8    12    10
 0.0000000015     1     8    13     1
 -0.0872768699     1     8    13     2
 0.0066716659     1     8    13     4
 0.0005540730     1     8    13    10
 -0.0000202316     1     9     2     6
 0.0000094412     1     9     2     7
 -0.0000104748     1     9     2    12
 0.0000224646     1     9     2    13
 0.0004258198     1     9     4     6
 -0.0001987118     1     9     4     7
 -0.0027564952     1     9     4    12
 0.0059116653     1     9     4    13
 0.0000000043     1     9     6     1
 -0.3041034553     1     9     6     2
 -0.0000000001     1     9     6     3
 0.0166970438     1     9     6     4
 0.0020600986     1     9     6    10
 -0.0000000020     1     9     7     1
 0.1419119713     1     9     7     2
 -0.0077917905     1     9     7     4
 -0.0009613592     1     9     7    10
 -0.0000000010     1     9     8     2
 -0.5198606291     1     9     9     1
 -0.0000000004     1     9     9     2
 0.0182128494     1     9     9     3
 -0.0000000001     1     9     9     4
 0.0018974069     1     9     9     5
 -0.0042856663     1     9     9    11
 -0.0000316933     1     9    10     6
 0.0000147899     1     9    10     7
 -0.0001706047     1     9    10    12
 0.0003658841     1     9    10    13
 0.0000000010     1     9    12     1
 -0.0872768699     1     9    12     2
 0.0066716659     1     9    12     4
 0.0005540730     1     9    12    10
 -0.0000000027     1     9    13     1
 0.1871766862     1     9    13     2
 0.0000000001     1     9    13     3
 -0.0143082620     1     9    13     4
 -0.0011882821     1     9    13    10
 -0.0020100076     1    10     2     1
 0.0000036053     1    10     2     3
 0.0000427602     1    10     2     5
 0.0000452746     1    10     2    11
 0.0000000003     1    10     3     1
 -0.0172425782     1    10     3     2
 -0.0006818552     1    10     3     4
 -0.0217850124     1    10     4     1
 -0.0014814508     1    10     4     3
 -0.0005418203     1    10     4     5
 0.0057377453     1    10     4    11
 -0.0000000047     1    10     5     1
 0.3260810030     1    10     5     2
 0.0000000001     1    10     5     3
 -0.0182655542     1    10     5     4
 0.0009613592     1    10     6     8
 -0.0020600986     1    10     6     9
 0.0020600986     1    10     7     8
 0.0009613592     1    10     7     9
 0.0009053256     1    10     8     6
 0.0019400241     1    10     8     7
 -0.0015623158     1    10     8    12
 -0.0007284776     1    10     8    13
 -0.0019400241     1    10     9     6
 0.0009053256     1    10     9     7
 -0.0007284776     1    10     9    12
 0.0015623158     1    10     9    13
 -0.5355479744     1    10    10     1
 0.0189036437     1    10    10     3
 -0.0000000001     1    10    10     4
 0.0039448541     1    10    10     5
 -0.0024115822     1    10    10    11
 -0.0000000032     1    10    11     1
 0.2239625000     1    10    11     2
 0.0000000001     1    10    11     3
 -0.0154745562     1    10    11     4
 -0.0000000001     1    10    11    11
 -0.0011882821     1    10    12     8
 -0.0005540730     1    10    12     9
 -0.0005540730     1    10    13     8
 0.0011882821     1    10    13     9
 -0.0017682379     1    11     2     2
 -0.0000134163     1    11     2     4
 -0.0000452746     1    11     2    10
 0.0703802775     1    11     3     1
 -0.0015465285     1    11     3     3
 0.0066189253     1    11     3     5
 -0.0000000009     1    11     4     1
 0.0623043531     1    11     4     2
 0.0002857329     1    11     4     4
 -0.0057377453     1    11     4    10
 -0.1657574244     1    11     5     1
 0.0205737410     1    11     5     3
 -0.0000000001     1    11     5     4
 0.0035705511     1    11     5     5
 0.0038405892     1    11     6     6
 -0.0000019122     1    11     6    12
 -0.0061884420     1    11     6    13
 0.0038405892     1    11     7     7
 -0.0061884420     1    11     7    12
 0.0000019122     1    11     7    13
 0.0042856663     1    11     8     8
 0.0042856663     1    11     9     9
 -0.0000000032     1    11    10     1
 0.2239173771     1    11    10     2
 0.0000000001     1    11    10     3
 -0.0214026266     1    11    10     4
 0.0024115822     1    11    10    10
 -0.5267290462     1    11    11     1
 0.0170031492     1    11    11     3
 -0.0000000002     1    11    11     4
 0.0101273416     1    11    11     5
 0.0000000001     1    11    11    10
 -0.0000021649     1    11    12     6
 -0.0070064693     1    11    12     7
 0.0079975239     1    11    12    12
 -0.0070064693     1    11    13     6
 0.0000021649     1    11    13     7
 0.0079975239     1    11    13    13
 0.0000224646     1    12     2     8
 0.0000104748     1    12     2     9
 -0.0000023312     1    12     3     6
 -0.0075445572     1    12     3     7
 0.0059116653     1    12     4     8
 0.0027564952     1    12     4     9
 0.0000000468     1    12     5     6
 0.0001514115     1    12     5     7
 0.0000600806     1    12     6     1
 0.0000000003     1    12     6     2
 -0.0000069939     1    12     6     3
 -0.0000003856     1    12     6     5
 0.0000019122     1    12     6    11
 0.1944443307     1    12     7     1
 -0.0000000001     1    12     7     2
 -0.0226349789     1    12     7     3
 0.0000000001     1    12     7     4
 -0.0012479690     1    12     7     5
 0.0061884420     1    12     7    11
 0.0000000027     1    12     8     1
 -0.1871543203     1    12     8     2
 -0.0000000001     1    12     8     3
 0.0203513099     1    12     8     4
 0.0015623158     1    12     8    10
 0.0000000010     1    12     9     1
 -0.0872664411     1    12     9     2
 0.0094894223     1    12     9     4
 0.0007284776     1    12     9    10
 0.0003658841     1    12    10     8
 0.0001706047     1    12    10     9
 -0.0000002735     1    12    11     6
 -0.0008850784     1    12    11     7
 -0.5051525526     1    12    12     1
 0.0000000001     1    12    12     2
 0.0195224527     1    12    12     3
 -0.0000000002     1    12    12     4
 0.0025706067     1    12    12     5
 -0.0079975239     1    12    12    11
 -0.0000000002     1    12    13     2
 0.0000104748     1    13     2     8
 -0.0000224646     1    13     2     9
 -0.0075445572     1    13     3     6
 0.0000023312     1    13     3     7
 -0.0000000001     1    13     3     8
 0.0027564952     1    13     4     8
 -0.0059116653     1    13     4     9
 0.0001514115     1    13     5     6
 -0.0000000468     1    13     5     7
 0.1944443307     1    13     6     1
 0.0000000001     1    13     6     2
 -0.0226349789     1    13     6     3
 0.0000000001     1    13     6     4
 -0.0012479690     1    13     6     5
 0.0061884420     1    13     6    11
 -0.0000600806     1    13     7     1
 0.0000000003     1    13     7     2
 0.0000069939     1    13     7     3
 0.0000003856     1    13     7     5
 -0.0000019122     1    13     7    11
 0.0000000015     1    13     8     1
 -0.0872664411     1    13     8     2
 -0.0000000001     1    13     8     3
 0.0094894223     1    13     8     4
 0.0007284776     1    13     8    10
 -0.0000000027     1    13     9     1
 0.1871543203     1    13     9     2
 0.0000000001     1    13     9     3
 -0.0203513099     1    13     9     4
 -0.0015623158     1    13     9    10
 0.0001706047     1    13    10     8
 -0.0003658841     1    13    10     9
 -0.0008850784     1    13    11     6
 0.0000002735     1    13    11     7
 -0.0000000002     1    13    12     2
 -0.5051525526     1    13    13     1
 -0.0000000001     1    13    13     2
 0.0195224527     1    13    13     3
 -0.0000000002     1    13    13     4
 0.0025706067     1    13    13     5
 -0.0079975239     1    13    13    11
 -0.1727012620     2     1     1     2
 0.0000734018     2     1     1     4
 -0.0020100076     2     1     1    10
 -0.0000313042     2     1     3     2
 0.3702290992     2     1     3     4
 0.0172456084     2     1     3    10
 0.3702199721     2     1     4     3
 0.0431761003     2     1     4     5
 -0.0623253761     2     1     4    11
 0.0018539766     2     1     5     2
 0.0431773910     2     1     5     4
 -0.3260393924     2     1     5    10
 0.0000000005     2     1     6     6
 0.0000000009     2     1     6     7
 -0.1419022898     2     1     6     8
 0.3040827086     2     1     6     9
 -0.0000000003     2     1     6    12
 -0.0000000001     2     1     6    13
 0.0000000009     2     1     7     6
 -0.0000000004     2     1     7     7
 -0.3040827086     2     1     7     8
 -0.1419022898     2     1     7     9
 0.0000000001     2     1     7    12
 -0.0000000003     2     1     7    13
 -0.1419119713     2     1     8     6
 -0.3041034553     2     1     8     7
 -0.0000000005     2     1     8     8
 0.0000000010     2     1     8     9
 0.1871766862     2     1     8    12
 0.0872768699     2     1     8    13
 0.3041034553     2     1     9     6
 -0.1419119713     2     1     9     7
 0.0000000010     2     1     9     8
 0.0000000004     2     1     9     9
 0.0872768699     2     1     9    12
 -0.1871766862     2     1     9    13
 0.0172425782     2     1    10     3
 -0.3260810030     2     1    10     5
 -0.2239625000     2     1    10    11
 0.0017682379     2     1    11     2
 -0.0623043531     2     1    11     4
 -0.2239173771     2     1    11    10
 -0.0000000003     2     1    12     6
 0.0000000001     2     1    12     7
 0.1871543203     2     1    12     8
 0.0872664411     2     1    12     9
 -0.0000000001     2     1    12    12
 0.0000000002     2     1    12    13
 -0.0000000001     2     1    13     6
 -0.0000000003     2     1    13     7
 0.0872664411     2     1    13     8
 -0.1871543203     2     1    13     9
 0.0000000002     2     1    13    12
 0.0000000001     2     1    13    13
 0.1727012620     2     2     1     1
 0.0000313042     2     2     1     3
 -0.0018539766     2     2     1     5
 -0.0017682379     2     2     1    11
 0.0000313042     2     2     3     1
 0.5409140938     2     2     3     3
 0.0000000052     2     2     3     4
 -0.0000465622     2     2     3     5
 0.0000000003     2     2     3    10
 -0.0704033048     2     2     3    11
 0.0000000052     2     2     4     3
 0.5448086054     2     2     4     4
 0.0000000007     2     2     4     5
 0.0217976235     2     2     4    10
 -0.0000000009     2     2     4    11
 -0.0018539766     2     2     5     1
 -0.0000465622     2     2     5     3
 0.0000000007     2     2     5     4
 0.5090888067     2     2     5     5
 -0.0000000047     2     2     5    10
 0.1657995302     2     2     5    11
 0.5141114147     2     2     6     6
 -0.0000000020     2     2     6     8
 0.0000000043     2     2     6     9
 -0.0000600874     2     2     6    12
 -0.1944661573     2     2     6    13
 0.5141114147     2     2     7     7
 -0.0000000043     2     2     7     8
 -0.0000000021     2     2     7     9
 -0.1944661573     2     2     7    12
 0.0000600874     2     2     7    13
 -0.0000000020     2     2     8     6
 -0.0000000043     2     2     8     7
 0.5198403301     2     2     8     8
 0.0000000027     2     2     8    12
 0.0000000010     2     2     8    13
 0.0000000043     2     2     9     6
 -0.0000000021     2     2     9     7
 0.5198403301     2     2     9     9
 0.0000000015     2     2     9    12
 -0.0000000027     2     2     9    13
 0.0000000003     2     2    10     3
 0.0217976235     2     2    10     4
 -0.0000000047     2     2    10     5
 0.5355068604     2     2    10    10
 -0.0000000032     2     2    10    11
 -0.0017682379     2     2    11     1
 -0.0704033048     2     2    11     3
 -0.0000000009     2     2    11     4
 0.1657995302     2     2    11     5
 -0.0000000032     2     2    11    10
 0.5267826505     2     2    11    11
 -0.0000600874     2     2    12     6
 -0.1944661573     2     2    12     7
 0.0000000027     2     2    12     8
 0.0000000015     2     2    12     9
 0.5051783524     2     2    12    12
 -0.1944661573     2     2    13     6
 0.0000600874     2     2    13     7
 0.0000000010     2     2    13     8
 -0.0000000027     2     2    13     9
 0.5051783524     2     2    13    13
 -0.0000313042     2     3     1     2
 -0.0000000330     2     3     1     4
 0.0000036053     2     3     1    10
 -0.5409140938     2     3     3     2
 0.0000006634     2     3     3     4
 -0.0013801133     2     3     3    10
 -0.3702199721     2     3     4     1
 -0.0000000052     2     3     4     2
 -0.0017136681     2     3     4     5
 -0.0017869817     2     3     4    11
 0.0000465622     2     3     5     2
 -0.0009160369     2     3     5     4
 -0.0000000001     2     3     5     5
 0.0186670260     2     3     5    10
 -0.0000000001     2     3     5    11
 -0.0000000001     2     3     6     6
 0.0078522100     2     3     6     8
 -0.0168265168     2     3     6     9
 0.0000000001     2     3     6    13
 -0.0000000001     2     3     7     7
 0.0168265168     2     3     7     8
 0.0078522099     2     3     7     9
 0.0000000001     2     3     7    12
 0.0073810447     2     3     8     6
 0.0158168559     2     3     8     7
 -0.0000000001     2     3     8     8
 -0.0199270506     2     3     8    12
 -0.0092915985     2     3     8    13
 -0.0158168559     2     3     9     6
 0.0073810447     2     3     9     7
 -0.0000000001     2     3     9     9
 -0.0092915985     2     3     9    12
 0.0199270506     2     3     9    13
 -0.0172425782     2     3    10     1
 -0.0000000003     2     3    10     2
 0.0170202548     2     3    10     5
 -0.0000000001     2     3    10    10
 0.0205295648     2     3    10    11
 0.0704033048     2     3    11     2
 -0.0010901807     2     3    11     4
 -0.0000000001     2     3    11     5
 0.0150279635     2     3    11    10
 -0.0000000002     2     3    11    11
 0.0000000001     2     3    12     7
 -0.0140333282     2     3    12     8
 -0.0065434696     2     3    12     9
 -0.0000000002     2     3    12    12
 0.0000000002     2     3    13     6
 -0.0065434696     2     3    13     8
 0.0140333282     2     3    13     9
 -0.0000000002     2     3    13    13
 -0.0000734018     2     4     1     1
 0.0000000330     2     4     1     3
 0.0000005766     2     4     1     5
 -0.0000134163     2     4     1    11
 -0.3702290992     2     4     3     1
 -0.0000000052     2     4     3     2
 -0.0000006634     2     4     3     3
 -0.0007906136     2     4     3     5
 -0.0007702675     2     4     3    11
 -0.5448086054     2     4     4     2
 -0.0003506283     2     4     4    10
 -0.0431773910     2     4     5     1
 -0.0000000007     2     4     5     2
 0.0009160369     2     4     5     3
 -0.0172655302     2     4     5     5
 0.0000000001     2     4     5    10
 -0.0203743802     2     4     5    11
 -0.0183733372     2     4     6     6
 -0.0000000001     2     4     6     9
 0.0000069744     2     4     6    12
 0.0225717262     2     4     6    13
 -0.0183733372     2     4     7     7
 0.0000000001     2     4     7     8
 0.0225717262     2     4     7    12
 -0.0000069744     2     4     7    13
 0.0000000001     2     4     8     7
 -0.0186544085     2     4     8     8
 -0.0000000001     2     4     8    12
 -0.0000000001     2     4     9     6
 -0.0186544085     2     4     9     9
 -0.0000000001     2     4     9    12
 0.0000000001     2     4     9    13
 -0.0217976235     2     4    10     2
 0.0000000001     2     4    10     5
 -0.0196190742     2     4    10    10
 0.0000000001     2     4    10    11
 0.0623043531     2     4    11     1
 0.0000000009     2     4    11     2
 0.0010901807     2     4    11     3
 -0.0140007430     2     4    11     5
 0.0000000001     2     4    11    10
 -0.0179005930     2     4    11    11
 0.0000047024     2     4    12     6
 0.0152188268     2     4    12     7
 -0.0000000001     2     4    12     8
 -0.0199474666     2     4    12    12
 0.0152188268     2     4    13     6
 -0.0000047024     2     4    13     7