&FCI NORB=  6,NELEC=  6,MS2=0,
 ORBSYM=1,1,1,1,1,1
 ISYM=1,
&END
 0.2696764694     1     1     2     2
 -0.0000000080     1     1     2     3
 -0.0000000080     1     1     3     2
 0.2666060070     1     1     3     3
 0.2567304709     1     1     4     4
 0.0000000104     1     1     4     5
 0.0000000104     1     1     5     4
 0.2607656418     1     1     5     5
 0.1895726685     1     1     6     6
 -0.2696764694     1     2     2     1
 0.0009333076     1     2     2     6
 0.0000000080     1     2     3     1
 0.0000000024     1     2     3     6
 0.0000000080     1     3     2     1
 0.0000000024     1     3     2     6
 -0.2666060070     1     3     3     1
 -0.0009343007     1     3     3     6
 -0.2567304709     1     4     4     1
 -0.0002528600     1     4     4     6
 -0.0000000104     1     4     5     1
 -0.0000000006     1     4     5     6
 -0.0000000104     1     5     4     1
 -0.0000000007     1     5     4     6
 -0.2607656418     1     5     5     1
 0.0002532921     1     5     5     6
 -0.0009333076     1     6     2     2
 -0.0000000024     1     6     2     3
 -0.0000000024     1     6     3     2
 0.0009343007     1     6     3     3
 0.0002528600     1     6     4     4
 0.0000000007     1     6     4     5
 0.0000000006     1     6     5     4
 -0.0002532921     1     6     5     5
 -0.1895726685     1     6     6     1
 -0.2696764694     2     1     1     2
 0.0000000080     2     1     1     3
 0.0009333076     2     1     6     2
 0.0000000024     2     1     6     3
 0.2696764694     2     2     1     1
 -0.0009333076     2     2     1     6
 0.2505110753     2     2     3     3
 0.2309280153     2     2     4     4
 -0.0000000002     2     2     4     5
 -0.0000000002     2     2     5     4
 0.2407576586     2     2     5     5
 -0.0009333076     2     2     6     1
 0.1878711428     2     2     6     6
 -0.0000000080     2     3     1     1
 -0.0000000024     2     3     1     6
 -0.2505110753     2     3     3     2
 0.0000000002     2     3     4     4
 -0.0273690203     2     3     4     5
 0.0175391364     2     3     5     4
 -0.0000000002     2     3     5     5
 -0.0000000024     2     3     6     1
 -0.0447571628     2     4     3     5
 -0.2309280153     2     4     4     2
 -0.0000000002     2     4     4     3
 0.0000000002     2     4     5     2
 -0.0175391364     2     4     5     3
 0.0447571628     2     5     3     4
 0.0000000002     2     5     4     2
 0.0273690203     2     5     4     3
 -0.2407576586     2     5     5     2
 0.0000000002     2     5     5     3
 0.0009333076     2     6     1     2
 0.0000000024     2     6     1     3
 -0.1878711428     2     6     6     2
 0.0000000080     3     1     1     2
 -0.2666060070     3     1     1     3
 0.0000000024     3     1     6     2
 -0.0009343007     3     1     6     3
 -0.0000000080     3     2     1     1
 -0.0000000024     3     2     1     6
 -0.2505110753     3     2     2     3
 0.0000000002     3     2     4     4
 0.0175391364     3     2     4     5
 -0.0273690203     3     2     5     4
 -0.0000000002     3     2     5     5
 -0.0000000024     3     2     6     1
 0.2666060070     3     3     1     1
 0.0009343007     3     3     1     6
 0.2505110753     3     3     2     2
 0.2407571191     3     3     4     4
 0.0000000002     3     3     4     5
 0.0000000002     3     3     5     4
 0.2309280718     3     3     5     5
 0.0009343007     3     3     6     1
 0.1878712599     3     3     6     6
 0.0447571628     3     4     2     5
 -0.0000000002     3     4     4     2
 -0.2407571191     3     4     4     3
 0.0273690203     3     4     5     2
 -0.0000000002     3     4     5     3
 -0.0447571628     3     5     2     4
 -0.0175391364     3     5     4     2
 -0.0000000002     3     5     4     3
 0.0000000002     3     5     5     2
 -0.2309280718     3     5     5     3
 0.0000000024     3     6     1     2
 -0.0009343007     3     6     1     3
 -0.1878712599     3     6     6     3
 -0.2567304709     4     1     1     4
 -0.0000000104     4     1     1     5
 -0.0002528600     4     1     6     4
 -0.0000000006     4     1     6     5
 -0.2309280153     4     2     2     4
 0.0000000002     4     2     2     5
 -0.0000000002     4     2     3     4
 -0.0175391364     4     2     3     5
 -0.0447571628     4     2     5     3
 -0.0000000002     4     3     2     4
 0.0273690203     4     3     2     5
 -0.2407571191     4     3     3     4
 -0.0000000002     4     3     3     5
 0.0447571628     4     3     5     2
 0.2567304709     4     4     1     1
 0.0002528600     4     4     1     6
 0.2309280153     4     4     2     2
 0.0000000002     4     4     2     3
 0.0000000002     4     4     3     2
 0.2407571191     4     4     3     3
 0.2438332972     4     4     5     5
 0.0002528600     4     4     6     1
 0.1843823644     4     4     6     6
 0.0000000104     4     5     1     1
 0.0000000007     4     5     1     6
 -0.0000000002     4     5     2     2
 -0.0273690203     4     5     2     3
 0.0175391364     4     5     3     2
 0.0000000002     4     5     3     3
 -0.2438332972     4     5     5     4
 0.0000000006     4     5     6     1
 -0.0002528600     4     6     1     4
 -0.0000000007     4     6     1     5
 -0.1843823644     4     6     6     4
 -0.0000000104     5     1     1     4
 -0.2607656418     5     1     1     5
 -0.0000000007     5     1     6     4
 0.0002532921     5     1     6     5
 0.0000000002     5     2     2     4
 -0.2407576586     5     2     2     5
 0.0273690203     5     2     3     4
 0.0000000002     5     2     3     5
 0.0447571628     5     2     4     3
 -0.0175391364     5     3     2     4
 0.0000000002     5     3     2     5
 -0.0000000002     5     3     3     4
 -0.2309280718     5     3     3     5
 -0.0447571628     5     3     4     2
 0.0000000104     5     4     1     1
 0.0000000006     5     4     1     6
 -0.0000000002     5     4     2     2
 0.0175391364     5     4     2     3
 -0.0273690203     5     4     3     2
 0.0000000002     5     4     3     3
 -0.2438332972     5     4     4     5
 0.0000000007     5     4     6     1
 0.2607656418     5     5     1     1
 -0.0002532921     5     5     1     6
 0.2407576586     5     5     2     2
 -0.0000000002     5     5     2     3
 -0.0000000002     5     5     3     2
 0.2309280718     5     5     3     3
 0.2438332972     5     5     4     4
 -0.0002532921     5     5     6     1
 0.1843820305     5     5     6     6
 -0.0000000006     5     6     1     4
 0.0002532921     5     6     1     5
 -0.1843820305     5     6     6     5
 -0.1895726685     6     1     1     6
 -0.0009333076     6     1     2     2
 -0.0000000024     6     1     2     3
 -0.0000000024     6     1     3     2
 0.0009343007     6     1     3     3
 0.0002528600     6     1     4     4
 0.0000000006     6     1     4     5
 0.0000000007     6     1     5     4
 -0.0002532921     6     1     5     5
 0.0009333076     6     2     2     1
 -0.1878711428     6     2     2     6
 0.0000000024     6     2     3     1
 0.0000000024     6     3     2     1
 -0.0009343007     6     3     3     1
 -0.1878712599     6     3     3     6
 -0.0002528600     6     4     4     1
 -0.1843823644     6     4     4     6
 -0.0000000007     6     4     5     1
 -0.0000000006     6     5     4     1
 0.0002532921     6     5     5     1
 -0.1843820305     6     5     5     6
 0.1895726685     6     6     1     1
 0.1878711428     6     6     2     2
 0.1878712599     6     6     3     3
 0.1843823644     6     6     4     4
 0.1843820305     6     6     5     5
0.0 0 0 0 0
 0.2696764694     1     1     2     2
 -0.0000000080     1     1     2     3
 -0.0000000080     1     1     3     2
 0.2666060070     1     1     3     3
 0.2567304709     1     1     4     4
 0.0000000104     1     1     4     5
 0.0000000104     1     1     5     4
 0.2607656418     1     1     5     5
 0.1895726685     1     1     6     6
 -0.2696764694     1     2     2     1
 0.0009333076     1     2     2     6
 0.0000000080     1     2     3     1
 0.0000000024     1     2     3     6
 0.0000000080     1     3     2     1
 0.0000000024     1     3     2     6
 -0.2666060070     1     3     3     1
 -0.0009343007     1     3     3     6
 -0.2567304709     1     4     4     1
 -0.0002528600     1     4     4     6
 -0.0000000104     1     4     5     1
 -0.0000000006     1     4     5     6
 -0.0000000104     1     5     4     1
 -0.0000000007     1     5     4     6
 -0.2607656418     1     5     5     1
 0.0002532921     1     5     5     6
 -0.0009333076     1     6     2     2
 -0.0000000024     1     6     2     3
 -0.0000000024     1     6     3     2
 0.0009343007     1     6     3     3
 0.0002528600     1     6     4     4
 0.0000000007     1     6     4     5
 0.0000000006     1     6     5     4
 -0.0002532921     1     6     5     5
 -0.1895726685     1     6     6     1
 -0.2696764694     2     1     1     2
 0.0000000080     2     1     1     3
 0.0009333076     2     1     6     2
 0.0000000024     2     1     6     3
 0.2696764694     2     2     1     1
 -0.0009333076     2     2     1     6
 0.2505110753     2     2     3     3
 0.2309280153     2     2     4     4
 -0.0000000002     2     2     4     5
 -0.0000000002     2     2     5     4
 0.2407576586     2     2     5     5
 -0.0009333076     2     2     6     1
 0.1878711428     2     2     6     6
 -0.0000000080     2     3     1     1
 -0.0000000024     2     3     1     6
 -0.2505110753     2     3     3     2
 0.0000000002     2     3     4     4
 -0.0273690203     2     3     4     5
 0.0175391364     2     3     5     4
 -0.0000000002     2     3     5     5
 -0.0000000024     2     3     6     1
 -0.0447571628     2     4     3     5
 -0.2309280153     2     4     4     2
 -0.0000000002     2     4     4     3
 0.0000000002     2     4     5     2
 -0.0175391364     2     4     5     3
 0.0447571628     2     5     3     4
 0.0000000002     2     5     4     2
 0.0273690203     2     5     4     3
 -0.2407576586     2     5     5     2
 0.0000000002     2     5     5     3
 0.0009333076     2     6     1     2
 0.0000000024     2     6     1     3
 -0.1878711428     2     6     6     2
 0.0000000080     3     1     1     2
 -0.2666060070     3     1     1     3
 0.0000000024     3     1     6     2
 -0.0009343007     3     1     6     3
 -0.0000000080     3     2     1     1
 -0.0000000024     3     2     1     6
 -0.2505110753     3     2     2     3
 0.0000000002     3     2     4     4
 0.0175391364     3     2     4     5
 -0.0273690203     3     2     5     4
 -0.0000000002     3     2     5     5
 -0.0000000024     3     2     6     1
 0.2666060070     3     3     1     1
 0.0009343007     3     3     1     6
 0.2505110753     3     3     2     2
 0.2407571191     3     3     4     4
 0.0000000002     3     3     4     5
 0.0000000002     3     3     5     4
 0.2309280718     3     3     5     5
 0.0009343007     3     3     6     1
 0.1878712599     3     3     6     6
 0.0447571628     3     4     2     5
 -0.0000000002     3     4     4     2
 -0.2407571191     3     4     4     3
 0.0273690203     3     4     5     2
 -0.0000000002     3     4     5     3
 -0.0447571628     3     5     2     4
 -0.0175391364     3     5     4     2
 -0.0000000002     3     5     4     3
 0.0000000002     3     5     5     2
 -0.2309280718     3     5     5     3
 0.0000000024     3     6     1     2
 -0.0009343007     3     6     1     3
 -0.1878712599     3     6     6     3
 -0.2567304709     4     1     1     4
 -0.0000000104     4     1     1     5
 -0.0002528600     4     1     6     4
 -0.0000000006     4     1     6     5
 -0.2309280153     4     2     2     4
 0.0000000002     4     2     2     5
 -0.0000000002     4     2     3     4
 -0.0175391364     4     2     3     5
 -0.0447571628     4     2     5     3
 -0.0000000002     4     3     2     4
 0.0273690203     4     3     2     5
 -0.2407571191     4     3     3     4
 -0.0000000002     4     3     3     5
 0.0447571628     4     3     5     2
 0.2567304709     4     4     1     1
 0.0002528600     4     4     1     6
 0.2309280153     4     4     2     2
 0.0000000002     4     4     2     3
 0.0000000002     4     4     3     2
 0.2407571191     4     4     3     3
 0.2438332972     4     4     5     5
 0.0002528600     4     4     6     1
 0.1843823644     4     4     6     6
 0.0000000104     4     5     1     1
 0.0000000007     4     5     1     6
 -0.0000000002     4     5     2     2
 -0.0273690203     4     5     2     3
 0.0175391364     4     5     3     2
 0.0000000002     4     5     3     3
 -0.2438332972     4     5     5     4
 0.0000000006     4     5     6     1
 -0.0002528600     4     6     1     4
 -0.0000000007     4     6     1     5
 -0.1843823644     4     6     6     4
 -0.0000000104     5     1     1     4
 -0.2607656418     5     1     1     5
 -0.0000000007     5     1     6     4
 0.0002532921     5     1     6     5
 0.0000000002     5     2     2     4
 -0.2407576586     5     2     2     5
 0.0273690203     5     2     3     4
 0.0000000002     5     2     3     5
 0.0447571628     5     2     4     3
 -0.0175391364     5     3     2     4
 0.0000000002     5     3     2     5
 -0.0000000002     5     3     3     4
 -0.2309280718     5     3     3     5
 -0.0447571628     5     3     4     2
 0.0000000104     5     4     1     1
 0.0000000006     5     4     1     6
 -0.0000000002     5     4     2     2
 0.0175391364     5     4     2     3
 -0.0273690203     5     4     3     2
 0.0000000002     5     4     3     3
 -0.2438332972     5     4     4     5
 0.0000000007     5     4     6     1
 0.2607656418     5     5     1     1
 -0.0002532921     5     5     1     6
 0.2407576586     5     5     2     2
 -0.0000000002     5     5     2     3
 -0.0000000002     5     5     3     2
 0.2309280718     5     5     3     3
 0.2438332972     5     5     4     4
 -0.0002532921     5     5     6     1
 0.1843820305     5     5     6     6
 -0.0000000006     5     6     1     4
 0.0002532921     5     6     1     5
 -0.1843820305     5     6     6     5
 -0.1895726685     6     1     1     6
 -0.0009333076     6     1     2     2
 -0.0000000024     6     1     2     3
 -0.0000000024     6     1     3     2
 0.0009343007     6     1     3     3
 0.0002528600     6     1     4     4
 0.0000000006     6     1     4     5
 0.0000000007     6     1     5     4
 -0.0002532921     6     1     5     5
 0.0009333076     6     2     2     1
 -0.1878711428     6     2     2     6
 0.0000000024     6     2     3     1
 0.0000000024     6     3     2     1
 -0.0009343007     6     3     3     1
 -0.1878712599     6     3     3     6
 -0.0002528600     6     4     4     1
 -0.1843823644     6     4     4     6
 -0.0000000007     6     4     5     1
 -0.0000000006     6     5     4     1
 0.0002532921     6     5     5     1
 -0.1843820305     6     5     5     6
 0.1895726685     6     6     1     1
 0.1878711428     6     6     2     2
 0.1878712599     6     6     3     3
 0.1843823644     6     6     4     4
 0.1843820305     6     6     5     5
0.0 0 0 0 0
 0.2906093425     1     1     1     1
 -0.0023319412     1     1     1     6
 0.2740059133     1     1     2     2
 -0.0000000053     1     1     2     3
 -0.0000000053     1     1     3     2
 0.2719678077     1     1     3     3
 0.2611231958     1     1     4     4
 0.0000000153     1     1     4     5
 0.0000000153     1     1     5     4
 0.2670621520     1     1     5     5
 -0.0023319412     1     1     6     1
 0.1957303248     1     1     6     6
 0.0023272817     1     2     1     2
 0.0000000041     1     2     1     3
 0.0043294439     1     2     2     1
 0.0001066309     1     2     2     6
 0.0000000027     1     2     3     1
 0.0000000003     1     2     3     6
 -0.0000123243     1     2     6     2
 0.0000000041     1     3     1     2
 0.0039236400     1     3     1     3
 0.0000000027     1     3     2     1
 0.0000000003     1     3     2     6
 0.0053618007     1     3     3     1
 -0.0001067336     1     3     3     6
 0.0000124282     1     3     6     3
 0.0037460609     1     4     1     4
 0.0000000029     1     4     1     5
 0.0043927249     1     4     4     1
 -0.0010880903     1     4     4     6
 0.0000000049     1     4     5     1
 -0.0000000028     1     4     5     6
 -0.0010044599     1     4     6     4
 -0.0000000026     1     4     6     5
 0.0000000029     1     5     1     4
 0.0048915092     1     5     1     5
 0.0000000049     1     5     4     1
 -0.0000000028     1     5     4     6
 0.0062965102     1     5     5     1
 0.0010882039     1     5     5     6
 -0.0000000026     1     5     6     4
 0.0009807838     1     5     6     5
 -0.0023319412     1     6     1     1
 0.0072346563     1     6     1     6
 -0.0008266767     1     6     2     2
 -0.0000000021     1     6     2     3
 -0.0000000021     1     6     3     2
 0.0008275671     1     6     3     3
 -0.0008352303     1     6     4     4
 -0.0000000021     1     6     4     5
 -0.0000000022     1     6     5     4
 0.0008349118     1     6     5     5
 0.0061576563     1     6     6     1
 -0.0000167009     1     6     6     6
 0.0043294439     2     1     1     2
 0.0000000027     2     1     1     3
 0.0023272817     2     1     2     1
 -0.0000123243     2     1     2     6
 0.0000000041     2     1     3     1
 0.0001066309     2     1     6     2
 0.0000000003     2     1     6     3
 0.2740059133     2     2     1     1
 -0.0008266767     2     2     1     6
 0.3150440918     2     2     2     2
 0.2732062095     2     2     3     3
 0.2699394799     2     2     4     4
 -0.0000000004     2     2     4     5
 -0.0000000004     2     2     5     4
 0.2968962247     2     2     5     5
 -0.0008266767     2     2     6     1
 0.1899434284     2     2     6     6
 -0.0000000053     2     3     1     1
 -0.0000000021     2     3     1     6
 0.0191427688     2     3     2     3
 0.0226951342     2     3     3     2
 0.0000000004     2     3     4     4
 -0.0145453340     2     3     4     5
 -0.0124117403     2     3     5     4
 -0.0000000004     2     3     5     5
 -0.0000000021     2     3     6     1
 0.0330035132     2     4     2     4
 -0.0000000004     2     4     2     5
 0.0000000004     2     4     3     4
 -0.0355342351     2     4     3     5
 0.0390114646     2     4     4     2
 0.0000000002     2     4     4     3
 -0.0000000002     2     4     5     2
 -0.0299508767     2     4     5     3
 -0.0000000004     2     5     2     4
 0.0593195809     2     5     2     5
 0.0092229277     2     5     3     4
 -0.0000000003     2     5     3     5
 -0.0000000002     2     5     4     2
 0.0128236863     2     5     4     3
 0.0561385661     2     5     5     2
 -0.0000000002     2     5     5     3
 0.0001066309     2     6     1     2
 0.0000000003     2     6     1     3
 -0.0000123243     2     6     2     1
 0.0019456553     2     6     2     6
 0.0020722856     2     6     6     2
 0.0000000027     3     1     1     2
 0.0053618007     3     1     1     3
 0.0000000041     3     1     2     1
 0.0039236400     3     1     3     1
 0.0000124282     3     1     3     6
 0.0000000003     3     1     6     2
 -0.0001067336     3     1     6     3
 -0.0000000053     3     2     1     1
 -0.0000000021     3     2     1     6
 0.0226951342     3     2     2     3
 0.0191427688     3     2     3     2
 0.0000000004     3     2     4     4
 -0.0124117403     3     2     4     5
 -0.0145453340     3     2     5     4
 -0.0000000004     3     2     5     5
 -0.0000000021     3     2     6     1
 0.2719678077     3     3     1     1
 0.0008275671     3     3     1     6
 0.2732062095     3     3     2     2
 0.3150440897     3     3     3     3
 0.2968956541     3     3     4     4
 0.0000000004     3     3     4     5
 0.0000000004     3     3     5     4
 0.2699394891     3     3     5     5
 0.0008275671     3     3     6     1
 0.1899435935     3     3     6     6
 0.0000000004     3     4     2     4
 0.0092229277     3     4     2     5
 0.0593197122     3     4     3     4
 0.0000000004     3     4     3     5
 0.0000000002     3     4     4     2
 0.0561385350     3     4     4     3
 0.0128236863     3     4     5     2
 0.0000000002     3     4     5     3
 -0.0355342351     3     5     2     4
 -0.0000000003     3     5     2     5
 0.0000000004     3     5     3     4
 0.0330152960     3     5     3     5
 -0.0299508767     3     5     4     2
 0.0000000002     3     5     4     3
 -0.0000000002     3     5     5     2
 0.0390114173     3     5     5     3
 0.0000000003     3     6     1     2
 -0.0001067336     3     6     1     3
 0.0000124282     3     6     3     1
 0.0019549051     3     6     3     6
 0.0020723336     3     6     6     3
 0.0043927249     4     1     1     4
 0.0000000049     4     1     1     5
 0.0037460609     4     1     4     1
 -0.0010044599     4     1     4     6
 0.0000000029     4     1     5     1
 -0.0000000026     4     1     5     6
 -0.0010880903     4     1     6     4
 -0.0000000028     4     1     6     5
 0.0390114646     4     2     2     4
 -0.0000000002     4     2     2     5
 0.0000000002     4     2     3     4
 -0.0299508767     4     2     3     5
 0.0330035132     4     2     4     2
 0.0000000004     4     2     4     3
 -0.0000000004     4     2     5     2
 -0.0355342351     4     2     5     3
 0.0000000002     4     3     2     4
 0.0128236863     4     3     2     5
 0.0561385350     4     3     3     4
 0.0000000002     4     3     3     5
 0.0000000004     4     3     4     2
 0.0593197122     4     3     4     3
 0.0092229277     4     3     5     2
 0.0000000004     4     3     5     3
 0.2611231958     4     4     1     1
 -0.0008352303     4     4     1     6
 0.2699394799     4     4     2     2
 0.0000000004     4     4     2     3
 0.0000000004     4     4     3     2
 0.2968956541     4     4     3     3
 0.2809190295     4     4     4     4
 0.2572887890     4     4     5     5
 -0.0008352303     4     4     6     1
 0.1862236366     4     4     6     6
 0.0000000153     4     5     1     1
 -0.0000000021     4     5     1     6
 -0.0000000004     4     5     2     2
 -0.0145453340     4     5     2     3
 -0.0124117403     4     5     3     2
 0.0000000004     4     5     3     3
 0.0101821143     4     5     4     5
 0.0134554918     4     5     5     4
 -0.0000000022     4     5     6     1
 -0.0010880903     4     6     1     4
 -0.0000000028     4     6     1     5
 -0.0010044599     4     6     4     1
 0.0013439779     4     6     4     6
 -0.0000000026     4     6     5     1
 0.0018412722     4     6     6     4
 0.0000000049     5     1     1     4
 0.0062965102     5     1     1     5
 0.0000000029     5     1     4     1
 -0.0000000026     5     1     4     6
 0.0048915092     5     1     5     1
 0.0009807838     5     1     5     6
 -0.0000000028     5     1     6     4
 0.0010882039     5     1     6     5
 -0.0000000002     5     2     2     4
 0.0561385661     5     2     2     5
 0.0128236863     5     2     3     4
 -0.0000000002     5     2     3     5
 -0.0000000004     5     2     4     2
 0.0092229277     5     2     4     3
 0.0593195809     5     2     5     2
 -0.0000000003     5     2     5     3
 -0.0299508767     5     3     2     4
 -0.0000000002     5     3     2     5
 0.0000000002     5     3     3     4
 0.0390114173     5     3     3     5
 -0.0355342351     5     3     4     2
 0.0000000004     5     3     4     3
 -0.0000000003     5     3     5     2
 0.0330152960     5     3     5     3
 0.0000000153     5     4     1     1
 -0.0000000022     5     4     1     6
 -0.0000000004     5     4     2     2
 -0.0124117403     5     4     2     3
 -0.0145453340     5     4     3     2
 0.0000000004     5     4     3     3
 0.0134554918     5     4     4     5
 0.0101821143     5     4     5     4
 -0.0000000021     5     4     6     1
 0.2670621520     5     5     1     1
 0.0008349118     5     5     1     6
 0.2968962247     5     5     2     2
 -0.0000000004     5     5     2     3
 -0.0000000004     5     5     3     2
 0.2699394891     5     5     3     3
 0.2572887890     5     5     4     4
 0.2809357285     5     5     5     5
 0.0008349118     5     5     6     1
 0.1862232474     5     5     6     6
 -0.0000000028     5     6     1     4
 0.0010882039     5     6     1     5
 -0.0000000026     5     6     4     1
 0.0009807838     5     6     5     1
 0.0013566291     5     6     5     6
 0.0018412169     5     6     6     5
 -0.0023319412     6     1     1     1
 0.0061576563     6     1     1     6
 -0.0008266767     6     1     2     2
 -0.0000000021     6     1     2     3
 -0.0000000021     6     1     3     2
 0.0008275671     6     1     3     3
 -0.0008352303     6     1     4     4
 -0.0000000022     6     1     4     5
 -0.0000000021     6     1     5     4
 0.0008349118     6     1     5     5
 0.0072346563     6     1     6     1
 -0.0000167009     6     1     6     6
 -0.0000123243     6     2     1     2
 0.0001066309     6     2     2     1
 0.0020722856     6     2     2     6
 0.0000000003     6     2     3     1
 0.0019456553     6     2     6     2
 0.0000124282     6     3     1     3
 0.0000000003     6     3     2     1
 -0.0001067336     6     3     3     1
 0.0020723336     6     3     3     6
 0.0019549051     6     3     6     3
 -0.0010044599     6     4     1     4
 -0.0000000026     6     4     1     5
 -0.0010880903     6     4     4     1
 0.0018412722     6     4     4     6
 -0.0000000028     6     4     5     1
 0.0013439779     6     4     6     4
 -0.0000000026     6     5     1     4
 0.0009807838     6     5     1     5
 -0.0000000028     6     5     4     1
 0.0010882039     6     5     5     1
 0.0018412169     6     5     5     6
 0.0013566291     6     5     6     5
 0.1957303248     6     6     1     1
 -0.0000167009     6     6     1     6
 0.1899434284     6     6     2     2
 0.1899435935     6     6     3     3
 0.1862236366     6     6     4     4
 0.1862232474     6     6     5     5
 -0.0000167009     6     6     6     1
 0.1713963785     6     6     6     6
0.0 0 0 0 0
 -1.9139879652     1     1     0     0
 0.0023467431     1     6     0     0
 -1.7791132588     2     2     0     0
 0.0000000132     2     3     0     0
 0.0000000132     3     2     0     0
 -1.7740037476     3     3     0     0
 -1.3831194861     4     4     0     0
 -0.0000000257     4     5     0     0
 -0.0000000257     5     4     0     0
 -1.3931070441     5     5     0     0
 0.0023467431     6     1     0     0
 -0.9469231705     6     6     0     0
0.0 0 0 0 0
 -1.9139879652     1     1     0     0
 0.0023467431     1     6     0     0
 -1.7791132588     2     2     0     0
 0.0000000132     2     3     0     0
 0.0000000132     3     2     0     0
 -1.7740037476     3     3     0     0
 -1.3831194861     4     4     0     0
 -0.0000000257     4     5     0     0
 -0.0000000257     5     4     0     0
 -1.3931070441     5     5     0     0
 0.0023467431     6     1     0     0
 -0.9469231705     6     6     0     0
-224.7484833506 0 0 0 0
