&FCI NORB= 13,NELEC= 14,MS2=0,
 ORBSYM=1,1,1,1,1,1,1,1,1,1,1,1,1
 ISYM=1,
&END
 0.4397335072     1     1     2     2
 0.0059100078     1     1     2     4
 0.0044243063     1     1     2    10
 0.7545605259     1     1     3     3
 0.0860824740     1     1     3     5
 -0.0843684336     1     1     3    11
 0.0059100078     1     1     4     2
 0.6300177215     1     1     4     4
 -0.1068785806     1     1     4    10
 0.0860824740     1     1     5     3
 0.6654610758     1     1     5     5
 -0.1662079020     1     1     5    11
 0.6448464952     1     1     6     6
 0.1893727444     1     1     6    12
 0.1105586058     1     1     6    13
 0.6448464952     1     1     7     7
 -0.1105586058     1     1     7    12
 0.1893727444     1     1     7    13
 0.6082534664     1     1     8     8
 0.6082534664     1     1     9     9
 0.0044243063     1     1    10     2
 -0.1068785806     1     1    10     4
 0.4609389780     1     1    10    10
 -0.0843684336     1     1    11     3
 -0.1662079020     1     1    11     5
 0.4939820324     1     1    11    11
 0.1893727444     1     1    12     6
 -0.1105586058     1     1    12     7
 0.5766353043     1     1    12    12
 0.1105586058     1     1    13     6
 0.1893727444     1     1    13     7
 0.5766353043     1     1    13    13
 -0.4397335072     1     2     2     1
 -0.0072236999     1     2     2     3
 -0.0137787221     1     2     2     5
 0.0101319860     1     2     2    11
 -0.1677960762     1     2     3     4
 0.1396408592     1     2     3    10
 -0.0059100078     1     2     4     1
 -0.1679928897     1     2     4     3
 0.2331397204     1     2     4     5
 -0.0365921438     1     2     4    11
 0.2335140378     1     2     5     4
 0.0628231295     1     2     5    10
 0.2374623278     1     2     6     8
 -0.0034370679     1     2     6     9
 0.0034370679     1     2     7     8
 0.2374623278     1     2     7     9
 0.2371005997     1     2     8     6
 0.0034318322     1     2     8     7
 0.1294484887     1     2     8    12
 0.0781076255     1     2     8    13
 -0.0034318322     1     2     9     6
 0.2371005997     1     2     9     7
 -0.0781076255     1     2     9    12
 0.1294484887     1     2     9    13
 -0.0044243063     1     2    10     1
 0.1394961611     1     2    10     3
 0.0625527898     1     2    10     5
 0.0219949897     1     2    10    11
 -0.0368777291     1     2    11     4
 0.0217893721     1     2    11    10
 0.1297802388     1     2    12     8
 -0.0783077994     1     2    12     9
 0.0783077994     1     2    13     8
 0.1297802388     1     2    13     9
 0.0072236999     1     3     2     2
 0.0001968135     1     3     2     4
 0.0001446981     1     3     2    10
 -0.7545605259     1     3     3     1
 -0.0187122370     1     3     3     5
 0.0154189049     1     3     3    11
 0.1679928897     1     3     4     2
 -0.0078497638     1     3     4     4
 -0.0032440350     1     3     4    10
 -0.0860824740     1     3     5     1
 -0.0238154520     1     3     5     5
 0.0140322462     1     3     5    11
 -0.0164501750     1     3     6     6
 -0.0186192440     1     3     6    12
 -0.0108701897     1     3     6    13
 -0.0164501750     1     3     7     7
 0.0108701897     1     3     7    12
 -0.0186192440     1     3     7    13
 -0.0149245181     1     3     8     8
 -0.0149245181     1     3     9     9
 -0.1394961611     1     3    10     2
 -0.0056447586     1     3    10     4
 -0.0003965446     1     3    10    10
 0.0843684336     1     3    11     1
 0.0117974797     1     3    11     5
 -0.0082285815     1     3    11    11
 -0.0112484453     1     3    12     6
 0.0065670086     1     3    12     7
 -0.0154979435     1     3    12    12
 -0.0065670086     1     3    13     6
 -0.0112484453     1     3    13     7
 -0.0154979435     1     3    13    13
 -0.0059100078     1     4     2     1
 -0.0001968135     1     4     2     3
 -0.0003743174     1     4     2     5
 0.0002855853     1     4     2    11
 0.1677960762     1     4     3     2
 0.0024007236     1     4     3    10
 -0.6300177215     1     4     4     1
 0.0078497638     1     4     4     3
 0.0027312626     1     4     4     5
 -0.0069148427     1     4     4    11
 -0.2335140378     1     4     5     2
 0.0099207325     1     4     5    10
 0.0135532436     1     4     6     8
 -0.0001961719     1     4     6     9
 0.0001961719     1     4     7     8
 0.0135532436     1     4     7     9
 0.0161639776     1     4     8     6
 0.0002339600     1     4     8     7
 0.0180590002     1     4     8    12
 0.0108965785     1     4     8    13
 -0.0002339600     1     4     9     6
 0.0161639776     1     4     9     7
 -0.0108965785     1     4     9    12
 0.0180590002     1     4     9    13
 0.1068785806     1     4    10     1
 0.0056447586     1     4    10     3
 0.0064968533     1     4    10     5
 -0.0076825849     1     4    10    11
 0.0368777291     1     4    11     2
 -0.0065973220     1     4    11    10
 0.0106766032     1     4    12     8
 -0.0064421310     1     4    12     9
 0.0064421310     1     4    13     8
 0.0106766032     1     4    13     9
 0.0137787221     1     5     2     2
 0.0003743174     1     5     2     4
 0.0002703397     1     5     2    10
 -0.0860824740     1     5     3     1
 0.0187122370     1     5     3     3
 0.0022347665     1     5     3    11
 -0.2331397204     1     5     4     2
 -0.0027312626     1     5     4     4
 0.0034238792     1     5     4    10
 -0.6654610758     1     5     5     1
 0.0238154520     1     5     5     3
 -0.0093886088     1     5     5    11
 0.0129583854     1     5     6     6
 0.0087355680     1     5     6    12
 0.0050999536     1     5     6    13
 0.0129583854     1     5     7     7
 -0.0050999536     1     5     7    12
 0.0087355680     1     5     7    13
 0.0092827466     1     5     8     8
 0.0092827466     1     5     9     9
 -0.0625527898     1     5    10     2
 -0.0064968533     1     5    10     4
 0.0058664156     1     5    10    10
 0.1662079020     1     5    11     1
 -0.0117974797     1     5    11     3
 0.0035497219     1     5    11    11
 0.0056282364     1     5    12     6
 -0.0032858475     1     5    12     7
 0.0086462588     1     5    12    12
 0.0032858475     1     5    13     6
 0.0056282364     1     5    13     7
 0.0086462588     1     5    13    13
 0.0003617281     1     6     2     8
 -0.0000052357     1     6     2     9
 -0.0073707987     1     6     3    12
 -0.0043031811     1     6     3    13
 -0.0026107340     1     6     4     8
 0.0000377881     1     6     4     9
 0.0031073316     1     6     5    12
 0.0018141061     1     6     5    13
 -0.6448464952     1     6     6     1
 0.0164501750     1     6     6     3
 -0.0129583854     1     6     6     5
 0.0075949658     1     6     6    11
 -0.2371005997     1     6     8     2
 -0.0161639776     1     6     8     4
 0.0117729453     1     6     8    10
 0.0034318322     1     6     9     2
 0.0002339600     1     6     9     4
 -0.0001704035     1     6     9    10
 0.0005294927     1     6    10     8
 -0.0000076639     1     6    10     9
 -0.0037504767     1     6    11    12
 -0.0021895837     1     6    11    13
 -0.1893727444     1     6    12     1
 0.0112484453     1     6    12     3
 -0.0056282364     1     6    12     5
 0.0007251146     1     6    12    11
 -0.1105586058     1     6    13     1
 0.0065670086     1     6    13     3
 -0.0032858475     1     6    13     5
 0.0004233326     1     6    13    11
 0.0000052357     1     7     2     8
 0.0003617281     1     7     2     9
 0.0043031811     1     7     3    12
 -0.0073707987     1     7     3    13
 -0.0000377881     1     7     4     8
 -0.0026107340     1     7     4     9
 -0.0018141061     1     7     5    12
 0.0031073316     1     7     5    13
 -0.6448464952     1     7     7     1
 0.0164501750     1     7     7     3
 -0.0129583854     1     7     7     5
 0.0075949658     1     7     7    11
 -0.0034318322     1     7     8     2
 -0.0002339600     1     7     8     4
 0.0001704035     1     7     8    10
 -0.2371005997     1     7     9     2
 -0.0161639776     1     7     9     4
 0.0117729453     1     7     9    10
 0.0000076639     1     7    10     8
 0.0005294927     1     7    10     9
 0.0021895837     1     7    11    12
 -0.0037504767     1     7    11    13
 0.1105586058     1     7    12     1
 -0.0065670086     1     7    12     3
 0.0032858475     1     7    12     5
 -0.0004233326     1     7    12    11
 -0.1893727444     1     7    13     1
 0.0112484453     1     7    13     3
 -0.0056282364     1     7    13     5
 0.0007251146     1     7    13    11
 -0.0003617281     1     8     2     6
 -0.0000052357     1     8     2     7
 -0.0003317501     1     8     2    12
 -0.0002001739     1     8     2    13
 0.0026107340     1     8     4     6
 0.0000377881     1     8     4     7
 0.0073823970     1     8     4    12
 0.0044544475     1     8     4    13
 -0.2374623278     1     8     6     2
 -0.0135532436     1     8     6     4
 0.0112434526     1     8     6    10
 -0.0034370679     1     8     7     2
 -0.0001961719     1     8     7     4
 0.0001627396     1     8     7    10
 -0.6082534664     1     8     8     1
 0.0149245181     1     8     8     3
 -0.0092827466     1     8     8     5
 0.0017957984     1     8     8    11
 -0.0005294927     1     8    10     6
 -0.0000076639     1     8    10     7
 -0.0025005386     1     8    10    12
 -0.0015087942     1     8    10    13
 -0.1297802388     1     8    12     2
 -0.0106766032     1     8    12     4
 0.0080415217     1     8    12    10
 -0.0783077994     1     8    13     2
 -0.0064421310     1     8    13     4
 0.0048521553     1     8    13    10
 0.0000052357     1     9     2     6
 -0.0003617281     1     9     2     7
 0.0002001739     1     9     2    12
 -0.0003317501     1     9     2    13
 -0.0000377881     1     9     4     6
 0.0026107340     1     9     4     7
 -0.0044544475     1     9     4    12
 0.0073823970     1     9     4    13
 0.0034370679     1     9     6     2
 0.0001961719     1     9     6     4
 -0.0001627396     1     9     6    10
 -0.2374623278     1     9     7     2
 -0.0135532436     1     9     7     4
 0.0112434526     1     9     7    10
 -0.6082534664     1     9     9     1
 0.0149245181     1     9     9     3
 -0.0092827466     1     9     9     5
 0.0017957984     1     9     9    11
 0.0000076639     1     9    10     6
 -0.0005294927     1     9    10     7
 0.0015087942     1     9    10    12
 -0.0025005386     1     9    10    13
 0.0783077994     1     9    12     2
 0.0064421310     1     9    12     4
 -0.0048521553     1     9    12    10
 -0.1297802388     1     9    13     2
 -0.0106766032     1     9    13     4
 0.0080415217     1     9    13    10
 -0.0044243063     1    10     2     1
 -0.0001446981     1    10     2     3
 -0.0002703397     1    10     2     5
 0.0002056176     1    10     2    11
 -0.1396408592     1    10     3     2
 -0.0024007236     1    10     3     4
 0.1068785806     1    10     4     1
 0.0032440350     1    10     4     3
 -0.0034238792     1    10     4     5
 -0.0010852629     1    10     4    11
 -0.0628231295     1    10     5     2
 -0.0099207325     1    10     5     4
 -0.0112434526     1    10     6     8
 0.0001627396     1    10     6     9
 -0.0001627396     1    10     7     8
 -0.0112434526     1    10     7     9
 -0.0117729453     1    10     8     6
 -0.0001704035     1    10     8     7
 -0.0105420603     1    10     8    12
 -0.0063609495     1    10     8    13
 0.0001704035     1    10     9     6
 -0.0117729453     1    10     9     7
 0.0063609495     1    10     9    12
 -0.0105420603     1    10     9    13
 -0.4609389780     1    10    10     1
 0.0003965446     1    10    10     3
 -0.0058664156     1    10    10     5
 0.0019537960     1    10    10    11
 -0.0217893721     1    10    11     2
 0.0065973220     1    10    11     4
 -0.0080415217     1    10    12     8
 0.0048521553     1    10    12     9
 -0.0048521553     1    10    13     8
 -0.0080415217     1    10    13     9
 -0.0101319860     1    11     2     2
 -0.0002855853     1    11     2     4
 -0.0002056176     1    11     2    10
 0.0843684336     1    11     3     1
 -0.0154189049     1    11     3     3
 -0.0022347665     1    11     3     5
 0.0365921438     1    11     4     2
 0.0069148427     1    11     4     4
 0.0010852629     1    11     4    10
 0.1662079020     1    11     5     1
 -0.0140322462     1    11     5     3
 0.0093886088     1    11     5     5
 -0.0075949658     1    11     6     6
 -0.0044755913     1    11     6    12
 -0.0026129163     1    11     6    13
 -0.0075949658     1    11     7     7
 0.0026129163     1    11     7    12
 -0.0044755913     1    11     7    13
 -0.0017957984     1    11     8     8
 -0.0017957984     1    11     9     9
 -0.0219949897     1    11    10     2
 0.0076825849     1    11    10     4
 -0.0019537960     1    11    10    10
 -0.4939820324     1    11    11     1
 0.0082285815     1    11    11     3
 -0.0035497219     1    11    11     5
 -0.0007251146     1    11    12     6
 0.0004233326     1    11    12     7
 -0.0014673798     1    11    12    12
 -0.0004233326     1    11    13     6
 -0.0007251146     1    11    13     7
 -0.0014673798     1    11    13    13
 0.0003317501     1    12     2     8
 -0.0002001739     1    12     2     9
 0.0073707987     1    12     3     6
 -0.0043031811     1    12     3     7
 -0.0073823970     1    12     4     8
 0.0044544475     1    12     4     9
 -0.0031073316     1    12     5     6
 0.0018141061     1    12     5     7
 -0.1893727444     1    12     6     1
 0.0186192440     1    12     6     3
 -0.0087355680     1    12     6     5
 0.0044755913     1    12     6    11
 0.1105586058     1    12     7     1
 -0.0108701897     1    12     7     3
 0.0050999536     1    12     7     5
 -0.0026129163     1    12     7    11
 -0.1294484887     1    12     8     2
 -0.0180590002     1    12     8     4
 0.0105420603     1    12     8    10
 0.0781076255     1    12     9     2
 0.0108965785     1    12     9     4
 -0.0063609495     1    12     9    10
 0.0025005386     1    12    10     8
 -0.0015087942     1    12    10     9
 0.0037504767     1    12    11     6
 -0.0021895837     1    12    11     7
 -0.5766353043     1    12    12     1
 0.0154979435     1    12    12     3
 -0.0086462588     1    12    12     5
 0.0014673798     1    12    12    11
 0.0002001739     1    13     2     8
 0.0003317501     1    13     2     9
 0.0043031811     1    13     3     6
 0.0073707987     1    13     3     7
 -0.0044544475     1    13     4     8
 -0.0073823970     1    13     4     9
 -0.0018141061     1    13     5     6
 -0.0031073316     1    13     5     7
 -0.1105586058     1    13     6     1
 0.0108701897     1    13     6     3
 -0.0050999536     1    13     6     5
 0.0026129163     1    13     6    11
 -0.1893727444     1    13     7     1
 0.0186192440     1    13     7     3
 -0.0087355680     1    13     7     5
 0.0044755913     1    13     7    11
 -0.0781076255     1    13     8     2
 -0.0108965785     1    13     8     4
 0.0063609495     1    13     8    10
 -0.1294484887     1    13     9     2
 -0.0180590002     1    13     9     4
 0.0105420603     1    13     9    10
 0.0015087942     1    13    10     8
 0.0025005386     1    13    10     9
 0.0021895837     1    13    11     6
 0.0037504767     1    13    11     7
 -0.5766353043     1    13    13     1
 0.0154979435     1    13    13     3
 -0.0086462588     1    13    13     5
 0.0014673798     1    13    13    11
 -0.4397335072     2     1     1     2
 -0.0059100078     2     1     1     4
 -0.0044243063     2     1     1    10
 -0.0072236999     2     1     3     2
 -0.1679928897     2     1     3     4
 0.1394961611     2     1     3    10
 -0.1677960762     2     1     4     3
 0.2335140378     2     1     4     5
 -0.0368777291     2     1     4    11
 -0.0137787221     2     1     5     2
 0.2331397204     2     1     5     4
 0.0625527898     2     1     5    10
 0.2371005997     2     1     6     8
 -0.0034318322     2     1     6     9
 0.0034318322     2     1     7     8
 0.2371005997     2     1     7     9
 0.2374623278     2     1     8     6
 0.0034370679     2     1     8     7
 0.1297802388     2     1     8    12
 0.0783077994     2     1     8    13
 -0.0034370679     2     1     9     6
 0.2374623278     2     1     9     7
 -0.0783077994     2     1     9    12
 0.1297802388     2     1     9    13
 0.1396408592     2     1    10     3
 0.0628231295     2     1    10     5
 0.0217893721     2     1    10    11
 0.0101319860     2     1    11     2
 -0.0365921438     2     1    11     4
 0.0219949897     2     1    11    10
 0.1294484887     2     1    12     8
 -0.0781076255     2     1    12     9
 0.0781076255     2     1    13     8
 0.1294484887     2     1    13     9
 0.4397335072     2     2     1     1
 0.0072236999     2     2     1     3
 0.0137787221     2     2     1     5
 -0.0101319860     2     2     1    11
 0.0072236999     2     2     3     1
 0.7547578354     2     2     3     3
 0.0865144185     2     2     3     5
 -0.0847063726     2     2     3    11
 0.6298781016     2     2     4     4
 -0.1069891624     2     2     4    10
 0.0137787221     2     2     5     1
 0.0865144185     2     2     5     3
 0.6663508516     2     2     5     5
 -0.1668765935     2     2     5    11
 0.6452615557     2     2     6     6
 0.1897670548     2     2     6    12
 0.1107888100     2     2     6    13
 0.6452615557     2     2     7     7
 -0.1107888100     2     2     7    12
 0.1897670548     2     2     7    13
 0.6079543371     2     2     8     8
 0.6079543371     2     2     9     9
 -0.1069891624     2     2    10     4
 0.4608546933     2     2    10    10
 -0.0101319860     2     2    11     1
 -0.0847063726     2     2    11     3
 -0.1668765935     2     2    11     5
 0.4944923735     2     2    11    11
 0.1897670548     2     2    12     6
 -0.1107888100     2     2    12     7
 0.5771273807     2     2    12    12
 0.1107888100     2     2    13     6
 0.1897670548     2     2    13     7
 0.5771273807     2     2    13    13
 -0.0072236999     2     3     1     2
 -0.0001968135     2     3     1     4
 -0.0001446981     2     3     1    10
 -0.7547578354     2     3     3     2
 -0.0098866647     2     3     3     4
 -0.0074743384     2     3     3    10
 0.1677960762     2     3     4     1
 -0.0152192631     2     3     4     5
 0.0062057697     2     3     4    11
 -0.0865144185     2     3     5     2
 -0.0200018201     2     3     5     4
 -0.0060230484     2     3     5    10
 -0.0227025189     2     3     6     8
 0.0003285999     2     3     6     9
 -0.0003285999     2     3     7     8
 -0.0227025189     2     3     7     9
 -0.0178523897     2     3     8     6
 -0.0002583983     2     3     8     7
 -0.0158111339     2     3     8    12
 -0.0095402436     2     3     8    13
 0.0002583983     2     3     9     6
 -0.0178523897     2     3     9     7
 0.0095402436     2     3     9    12
 -0.0158111339     2     3     9    13
 -0.1396408592     2     3    10     1
 -0.0064315102     2     3    10     5
 0.0017201020     2     3    10    11
 0.0847063726     2     3    11     2
 0.0091501472     2     3    11     4
 0.0004486482     2     3    11    10
 -0.0131762988     2     3    12     8
 0.0079504166     2     3    12     9
 -0.0079504166     2     3    13     8
 -0.0131762988     2     3    13     9
 0.0059100078     2     4     1     1
 0.0001968135     2     4     1     3
 0.0003743174     2     4     1     5
 -0.0002855853     2     4     1    11
 0.1679928897     2     4     3     1
 0.0098866647     2     4     3     3
 0.0047825570     2     4     3     5
 -0.0029443775     2     4     3    11
 -0.6298781016     2     4     4     2
 0.0023526669     2     4     4    10
 -0.2331397204     2     4     5     1
 0.0200018201     2     4     5     3
 0.0201906097     2     4     5     5
 -0.0194416580     2     4     5    11
 0.0184192136     2     4     6     6
 0.0169090143     2     4     6    12
 0.0098717323     2     4     6    13
 0.0184192136     2     4     7     7
 -0.0098717323     2     4     7    12
 0.0169090143     2     4     7    13
 0.0193022473     2     4     8     8
 0.0193022473     2     4     9     9
 0.1069891624     2     4    10     2
 0.0053014852     2     4    10    10
 0.0365921438     2     4    11     1
 -0.0091501472     2     4    11     3
 -0.0087376607     2     4    11     5
 0.0087333190     2     4    11    11
 0.0121192768     2     4    12     6
 -0.0070754128     2     4    12     7
 0.0174144122     2     4    12    12
 0.0070754128     2     4    13     6
 0.0121192768     2     4    13     7
 0.0174144122     2     4    13    13
 -0.0137787221     2     5     1     2
 -0.0003743174     2     5     1     4
 -0.0002703397     2     5     1    10
 -0.0865144185     2     5     3     2
 -0.0047825570     2     5     3     4
 0.0004084618     2     5     3    10
 -0.2335140378     2     5     4     1
 0.0152192631     2     5     4     3
 -0.0107039973     2     5     4    11
 -0.6663508516     2     5     5     2
 -0.0201906097     2     5     5     4
 0.0061226387     2     5     5    10
 0.0008805782     2     5     6     8
 -0.0000127457     2     5     6     9
 0.0000127457     2     5     7     8
 0.0008805782     2     5     7     9
 0.0025541551     2     5     8     6
 0.0000369693     2     5     8     7
 0.0068906041     2     5     8    12
 0.0041577057     2     5     8    13
 -0.0000369693     2     5     9     6
 0.0025541551     2     5     9     7
 -0.0041577057     2     5     9    12
 0.0068906041     2     5     9    13
 -0.0628231295     2     5    10     1
 0.0064315102     2     5    10     3
 -0.0065329478     2     5    10    11
 0.1668765935     2     5    11     2
 0.0087376607     2     5    11     4
 -0.0080544867     2     5    11    10
 0.0020137239     2     5    12     8
 -0.0012150562     2     5    12     9
 0.0012150562     2     5    13     8
 0.0020137239     2     5    13     9
 -0.0003617281     2     6     1     8
 0.0000052357     2     6     1     9
 -0.0048501292     2     6     3     8
 0.0000702016     2     6     3     9
 0.0047897375     2     6     4    12
 0.0027963195     2     6     4    13
 -0.0016735769     2     6     5     8
 0.0000242236     2     6     5     9
 -0.6452615557     2     6     6     2
 -0.0184192136     2     6     6     4
 0.0067743849     2     6     6    10
 -0.2374623278     2     6     8     1
 0.0178523897     2     6     8     3
 -0.0025541551     2     6     8     5
 -0.0027914782     2     6     8    11
 0.0034370679     2     6     9     1
 -0.0002583983     2     6     9     3
 0.0000369693     2     6     9     5
 0.0000404043     2     6     9    11
 -0.0020651626     2     6    10    12
 -0.0012056725     2     6    10    13
 -0.0013554278     2     6    11     8
 0.0000196187     2     6    11     9
 -0.1897670548     2     6    12     2
 -0.0121192768     2     6    12     4
 0.0067075731     2     6    12    10
 -0.1107888100     2     6    13     2
 -0.0070754128     2     6    13     4
 0.0039159803     2     6    13    10
 -0.0000052357     2     7     1     8
 -0.0003617281     2     7     1     9
 -0.0000702016     2     7     3     8
 -0.0048501292     2     7     3     9
 -0.0027963195     2     7     4    12
 0.0047897375     2     7     4    13
 -0.0000242236     2     7     5     8
 -0.0016735769     2     7     5     9
 -0.6452615557     2     7     7     2
 -0.0184192136     2     7     7     4
 0.0067743849     2     7     7    10
 -0.0034370679     2     7     8     1
 0.0002583983     2     7     8     3
 -0.0000369693     2     7     8     5
 -0.0000404043     2     7     8    11
 -0.2374623278     2     7     9     1
 0.0178523897     2     7     9     3
 -0.0025541551     2     7     9     5
 -0.0027914782     2     7     9    11
 0.0012056725     2     7    10    12
 -0.0020651626     2     7    10    13
 -0.0000196187     2     7    11     8
 -0.0013554278     2     7    11     9
 0.1107888100     2     7    12     2
 0.0070754128     2     7    12     4
 -0.0039159803     2     7    12    10
 -0.1897670548     2     7    13     2
 -0.0121192768     2     7    13     4
 0.0067075731     2     7    13    10
 0.0003617281     2     8     1     6
 0.0000052357     2     8     1     7
 0.0003317501     2     8     1    12
 0.0002001739     2     8     1    13
 0.0048501292     2     8     3     6
 0.0000702016     2     8     3     7
 -0.0026348351     2     8     3    12
 -0.0015898270     2     8     3    13
 0.0016735769     2     8     5     6
 0.0000242236     2     8     5     7
 0.0048768802     2     8     5    12
 0.0029426495     2     8     5    13
 -0.2371005997     2     8     6     1
 0.0227025189     2     8     6     3
 -0.0008805782     2     8     6     5
 -0.0014360504     2     8     6    11
 -0.0034318322     2     8     7     1
 0.0003285999     2     8     7     3
 -0.0000127457     2     8     7     5
 -0.0000207856     2     8     7    11
 -0.6079543371     2     8     8     2
 -0.0193022473     2     8     8     4
 0.0098088392     2     8     8    10
 0.0013554278     2     8    11     6
 0.0000196187     2     8    11     7
 -0.0023946729     2     8    11    12
 -0.0014449161     2     8    11    13
 -0.1294484887     2     8    12     1
 0.0131762988     2     8    12     3
 -0.0020137239     2     8    12     5
 -0.0020281508     2     8    12    11
 -0.0781076255     2     8    13     1
 0.0079504166     2     8    13     3
 -0.0012150562     2     8    13     5
 -0.0012237612     2     8    13    11
 -0.0000052357     2     9     1     6
 0.0003617281     2     9     1     7
 -0.0002001739     2     9     1    12
 0.0003317501     2     9     1    13
 -0.0000702016     2     9     3     6
 0.0048501292     2     9     3     7
 0.0015898270     2     9     3    12
 -0.0026348351     2     9     3    13
 -0.0000242236     2     9     5     6
 0.0016735769     2     9     5     7
 -0.0029426495     2     9     5    12
 0.0048768802     2     9     5    13
 0.0034318322     2     9     6     1
 -0.0003285999     2     9     6     3
 0.0000127457     2     9     6     5
 0.0000207856     2     9     6    11
 -0.2371005997     2     9     7     1
 0.0227025189     2     9     7     3
 -0.0008805782     2     9     7     5
 -0.0014360504     2     9     7    11
 -0.6079543371     2     9     9     2
 -0.0193022473     2     9     9     4
 0.0098088392     2     9     9    10
 -0.0000196187     2     9    11     6
 0.0013554278     2     9    11     7
 0.0014449161     2     9    11    12
 -0.0023946729     2     9    11    13
 0.0781076255     2     9    12     1
 -0.0079504166     2     9    12     3
 0.0012150562     2     9    12     5
 0.0012237612     2     9    12    11
 -0.1294484887     2     9    13     1
 0.0131762988     2     9    13     3
 -0.0020137239     2     9    13     5
 -0.0020281508     2     9    13    11
 0.0044243063     2    10     1     1
 0.0001446981     2    10     1     3
 0.0002703397     2    10     1     5
 -0.0002056176     2    10     1    11
 -0.1394961611     2    10     3     1
 0.0074743384     2    10     3     3
 -0.0004084618     2    10     3     5
 0.0012714538     2    10     3    11
 0.1069891624     2    10     4     2
 -0.0023526669     2    10     4     4
 -0.0625527898     2    10     5     1
 0.0060230484     2    10     5     3
 -0.0061226387     2    10     5     5
 0.0015215389     2    10     5    11
 -0.0067743849     2    10     6     6
 -0.0087727357     2    10     6    12
 -0.0051216528     2    10     6    13
 -0.0067743849     2    10     7     7
 0.0051216528     2    10     7    12
 -0.0087727357     2    10     7    13
 -0.0098088392     2    10     8     8
 -0.0098088392     2    10     9     9
 -0.4608546933     2    10    10     2
 -0.0053014852     2    10    10     4
 -0.0219949897     2    10    11     1
 -0.0004486482     2    10    11     3
 0.0080544867     2    10    11     5
 -0.0051560606     2    10    11    11
 -0.0067075731     2    10    12     6
 0.0039159803     2    10    12     7
 -0.0092402329     2    10    12    12
 -0.0039159803     2    10    13     6
 -0.0067075731     2    10    13     7
 -0.0092402329     2    10    13    13
 0.0101319860     2    11     1     2
 0.0002855853     2    11     1     4
 0.0002056176     2    11     1    10
 0.0847063726     2    11     3     2
 0.0029443775     2    11     3     4
 -0.0012714538     2    11     3    10
 0.0368777291     2    11     4     1
 -0.0062057697     2    11     4     3
 0.0107039973     2    11     4     5
 0.1668765935     2    11     5     2
 0.0194416580     2    11     5     4
 -0.0015215389     2    11     5    10
 0.0014360504     2    11     6     8
 -0.0000207856     2    11     6     9
 0.0000207856     2    11     7     8
 0.0014360504     2    11     7     9
 0.0027914782     2    11     8     6
 0.0000404043     2    11     8     7
 -0.0003665221     2    11     8    12
 -0.0002211549     2    11     8    13
 -0.0000404043     2    11     9     6
 0.0027914782     2    11     9     7
 0.0002211549     2    11     9    12
 -0.0003665221     2    11     9    13
 -0.0217893721     2    11    10     1
 -0.0017201020     2    11    10     3
 0.0065329478     2    11    10     5
 -0.4944923735     2    11    11     2
 -0.0087333190     2    11    11     4
 0.0051560606     2    11    11    10
 0.0020281508     2    11    12     8
 -0.0012237612     2    11    12     9
 0.0012237612     2    11    13     8
 0.0020281508     2    11    13     9
 -0.0003317501     2    12     1     8
 0.0002001739     2    12     1     9
 0.0026348351     2    12     3     8
 -0.0015898270     2    12     3     9
 -0.0047897375     2    12     4     6