&FCI NORB= 19,NELEC= 14,MS2=0,
 ORBSYM=1,1,1,1,1,1,1,1,1,1,1,1,1,1,1,1,1,1,1
 ISYM=1,
&END
 0.1667418671     1     1     2     2
 -0.0000814634     1     1     2     4
 -0.0017216965     1     1     2    10
 0.0000000001     1     1     2    11
 0.0014281838     1     1     2    16
 -0.0014137712     1     1     2    18
 0.5410340286     1     1     3     3
 -0.0000000066     1     1     3     4
 0.0023879693     1     1     3     5
 0.0000000003     1     1     3    10
 0.0668734825     1     1     3    11
 0.0000000020     1     1     3    16
 0.1487557785     1     1     3    17
 0.0000000020     1     1     3    18
 -0.0000814634     1     1     4     2
 -0.0000000066     1     1     4     3
 0.5443720008     1     1     4     4
 0.0000000007     1     1     4     5
 -0.0160097260     1     1     4    10
 -0.0000000012     1     1     4    11
 -0.1224889879     1     1     4    16
 -0.0000000026     1     1     4    17
 -0.1064823014     1     1     4    18
 0.0023879693     1     1     5     3
 0.0000000007     1     1     5     4
 0.5023508945     1     1     5     5
 0.0000000060     1     1     5    10
 0.1770006528     1     1     5    11
 -0.0000000024     1     1     5    16
 -0.0886417993     1     1     5    17
 0.0000000020     1     1     5    18
 0.5115240907     1     1     6     6
 0.0000000049     1     1     6     8
 -0.0000000036     1     1     6     9
 -0.0000218308     1     1     6    12
 -0.2032439996     1     1     6    13
 -0.0000000031     1     1     6    14
 0.0000000007     1     1     6    15
 0.5115240907     1     1     7     7
 -0.0000000035     1     1     7     8
 -0.0000000050     1     1     7     9
 -0.2032439996     1     1     7    12
 0.0000218308     1     1     7    13
 0.0000000003     1     1     7    14
 0.0000000038     1     1     7    15
 0.0000000049     1     1     8     6
 -0.0000000035     1     1     8     7
 0.5165047679     1     1     8     8
 0.0000000021     1     1     8    12
 -0.0000000033     1     1     8    13
 -0.1829446012     1     1     8    14
 -0.0899277435     1     1     8    15
 -0.0000000036     1     1     9     6
 -0.0000000050     1     1     9     7
 0.5165047679     1     1     9     9
 0.0000000025     1     1     9    12
 0.0000000020     1     1     9    13
 0.0899277435     1     1     9    14
 -0.1829446012     1     1     9    15
 -0.0017216965     1     1    10     2
 0.0000000003     1     1    10     3
 -0.0160097260     1     1    10     4
 0.0000000060     1     1    10     5
 0.5305558339     1     1    10    10
 0.0000000039     1     1    10    11
 -0.1442927483     1     1    10    16
 -0.0000000011     1     1    10    17
 0.1408651290     1     1    10    18
 0.0000000001     1     1    11     2
 0.0668734825     1     1    11     3
 -0.0000000012     1     1    11     4
 0.1770006528     1     1    11     5
 0.0000000039     1     1    11    10
 0.5220410338     1     1    11    11
 -0.0000000026     1     1    11    16
 -0.0155322845     1     1    11    17
 0.0000000049     1     1    11    18
 -0.0000218308     1     1    12     6
 -0.2032439996     1     1    12     7
 0.0000000021     1     1    12     8
 0.0000000025     1     1    12     9
 0.5021991664     1     1    12    12
 -0.0000000009     1     1    12    14
 -0.0000000058     1     1    12    15
 -0.2032439996     1     1    13     6
 0.0000218308     1     1    13     7
 -0.0000000033     1     1    13     8
 0.0000000020     1     1    13     9
 0.5021991664     1     1    13    13
 0.0000000059     1     1    13    14
 -0.0000000009     1     1    13    15
 -0.0000000031     1     1    14     6
 0.0000000003     1     1    14     7
 -0.1829446012     1     1    14     8
 0.0899277435     1     1    14     9
 -0.0000000009     1     1    14    12
 0.0000000059     1     1    14    13
 0.4995208110     1     1    14    14
 0.0000000007     1     1    15     6
 0.0000000038     1     1    15     7
 -0.0899277435     1     1    15     8
 -0.1829446012     1     1    15     9
 -0.0000000058     1     1    15    12
 -0.0000000009     1     1    15    13
 0.4995208110     1     1    15    15
 0.0014281838     1     1    16     2
 0.0000000020     1     1    16     3
 -0.1224889879     1     1    16     4
 -0.0000000024     1     1    16     5
 -0.1442927483     1     1    16    10
 -0.0000000026     1     1    16    11
 0.4593607219     1     1    16    16
 0.0000000050     1     1    16    17
 -0.0298084962     1     1    16    18
 0.1487557785     1     1    17     3
 -0.0000000026     1     1    17     4
 -0.0886417993     1     1    17     5
 -0.0000000011     1     1    17    10
 -0.0155322845     1     1    17    11
 0.0000000050     1     1    17    16
 0.4395139926     1     1    17    17
 0.0000000014     1     1    17    18
 -0.0014137712     1     1    18     2
 0.0000000020     1     1    18     3
 -0.1064823014     1     1    18     4
 0.0000000020     1     1    18     5
 0.1408651290     1     1    18    10
 0.0000000049     1     1    18    11
 -0.0298084962     1     1    18    16
 0.0000000014     1     1    18    17
 0.4850629967     1     1    18    18
 0.4661103690     1     1    19    19
 -0.1667418671     1     2     2     1
 -0.0000255459     1     2     2     3
 -0.0017301927     1     2     2     5
 -0.0018755396     1     2     2    11
 0.0000000001     1     2     2    16
 0.0008033142     1     2     2    17
 0.3756607075     1     2     3     4
 -0.0140824643     1     2     3    10
 -0.1103966097     1     2     3    16
 -0.1128287585     1     2     3    18
 0.0000814634     1     2     4     1
 0.3756648500     1     2     4     3
 -0.0364977172     1     2     4     5
 0.0664468318     1     2     4    11
 0.1515124627     1     2     4    17
 -0.0365001422     1     2     5     4
 -0.0000000001     1     2     5     5
 -0.0000000001     1     2     5     6
 -0.3394801158     1     2     5    10
 0.1380584704     1     2     5    16
 -0.1164653309     1     2     5    18
 -0.0000000001     1     2     6     5
 0.0000000015     1     2     6     6
 -0.0000000013     1     2     6     7
 -0.2846223736     1     2     6     8
 0.2004314848     1     2     6     9
 0.0000000005     1     2     6    12
 -0.0000000005     1     2     6    13
 0.1943461562     1     2     6    14
 -0.0306997133     1     2     6    15
 -0.0000000013     1     2     7     6
 -0.0000000014     1     2     7     7
 0.2004314848     1     2     7     8
 0.2846223736     1     2     7     9
 0.0000000005     1     2     7    12
 0.0000000005     1     2     7    13
 -0.0306997133     1     2     7    14
 -0.1943461562     1     2     7    15
 -0.2846027784     1     2     8     6
 0.2004176858     1     2     8     7
 -0.0000000016     1     2     8     8
 0.0000000008     1     2     8     9
 -0.1181214641     1     2     8    12
 0.1677764536     1     2     8    13
 0.0000000006     1     2     8    14
 0.2004176858     1     2     9     6
 0.2846027784     1     2     9     7
 0.0000000008     1     2     9     8
 0.0000000015     1     2     9     9
 -0.1677764536     1     2     9    12
 -0.1181214641     1     2     9    13
 -0.0000000007     1     2     9    15
 0.0017216965     1     2    10     1
 -0.0140799071     1     2    10     3
 -0.3394454730     1     2    10     5
 0.0000000001     1     2    10    10
 -0.2220797819     1     2    10    11
 0.0620742651     1     2    10    17
 -0.0000000001     1     2    11     1
 0.0664453928     1     2    11     4
 -0.2221192537     1     2    11    10
 0.1467854013     1     2    11    16
 -0.2807096820     1     2    11    18
 0.0000000005     1     2    12     6
 0.0000000005     1     2    12     7
 -0.1181387379     1     2    12     8
 -0.1678009887     1     2    12     9
 -0.0000000003     1     2    12    12
 -0.0000000003     1     2    12    13
 0.0527976652     1     2    12    14
 0.3344715108     1     2    12    15
 -0.0000000005     1     2    13     6
 0.0000000005     1     2    13     7
 0.1678009887     1     2    13     8
 -0.1181387379     1     2    13     9
 -0.0000000003     1     2    13    12
 0.0000000003     1     2    13    13
 -0.3344715108     1     2    13    14
 0.0527976652     1     2    13    15
 0.1943178034     1     2    14     6
 -0.0306952346     1     2    14     7
 0.0000000006     1     2    14     8
 0.0527921421     1     2    14    12
 -0.3344365216     1     2    14    13
 -0.0000000004     1     2    14    14
 -0.0000000002     1     2    14    15
 -0.0306952346     1     2    15     6
 -0.1943178034     1     2    15     7
 -0.0000000007     1     2    15     9
 0.3344365216     1     2    15    12
 0.0527921421     1     2    15    13
 -0.0000000002     1     2    15    14
 0.0000000004     1     2    15    15
 -0.0014281838     1     2    16     1
 -0.1103997526     1     2    16     3
 0.1380308509     1     2    16     5
 0.1467540507     1     2    16    11
 -0.2850370893     1     2    16    17
 0.1515121308     1     2    17     4
 0.0620903714     1     2    17    10
 -0.2850498563     1     2    17    16
 -0.0804900663     1     2    17    18
 0.0014137712     1     2    18     1
 -0.1128274844     1     2    18     3
 -0.1164363624     1     2    18     5
 -0.2806771103     1     2    18    11
 -0.0805033214     1     2    18    17
 -0.0000000003     1     2    19    19
 0.0000255459     1     3     2     2
 -0.0000039992     1     3     2     4
 -0.0000024350     1     3     2    10
 0.0000029472     1     3     2    16
 -0.0000009386     1     3     2    18
 -0.5410340286     1     3     3     1
 -0.0010103500     1     3     3     5
 -0.0014125654     1     3     3    11
 0.0000000001     1     3     3    16
 0.0000331359     1     3     3    17
 0.0000000066     1     3     4     1
 -0.3756648500     1     3     4     2
 -0.0001602853     1     3     4     4
 -0.0015215845     1     3     4    10
 0.0016734639     1     3     4    16
 -0.0008198225     1     3     4    18
 -0.0023879693     1     3     5     1
 -0.0174065820     1     3     5     5
 -0.0000000001     1     3     5    10
 -0.0207053741     1     3     5    11
 0.0000000001     1     3     5    16
 0.0088555413     1     3     5    17
 -0.0000000001     1     3     5    18
 -0.0185093907     1     3     6     6
 -0.0000000001     1     3     6     8
 0.0000000001     1     3     6     9
 0.0000024415     1     3     6    12
 0.0227305007     1     3     6    13
 0.0000000001     1     3     6    14
 -0.0185093907     1     3     7     7
 0.0000000001     1     3     7     8
 0.0000000001     1     3     7     9
 0.0227305007     1     3     7    12
 -0.0000024415     1     3     7    13
 -0.0000000003     1     3     7    15
 -0.0000000001     1     3     8     6
 0.0000000001     1     3     8     7
 -0.0181763857     1     3     8     8
 -0.0000000001     1     3     8    12
 0.0000000003     1     3     8    13
 0.0198726848     1     3     8    14
 0.0097685621     1     3     8    15
 0.0000000001     1     3     9     6
 0.0000000001     1     3     9     7
 -0.0181763857     1     3     9     9
 -0.0000000001     1     3     9    12
 -0.0000000001     1     3     9    13
 -0.0097685621     1     3     9    14
 0.0198726848     1     3     9    15
 -0.0000000003     1     3    10     1
 0.0140799071     1     3    10     2
 -0.0008216218     1     3    10     4
 -0.0000000001     1     3    10     5
 -0.0188007265     1     3    10    10
 -0.0000000002     1     3    10    11
 0.0161058859     1     3    10    16
 0.0000000001     1     3    10    17
 -0.0156230612     1     3    10    18
 -0.0668734825     1     3    11     1
 -0.0141968314     1     3    11     5
 -0.0000000002     1     3    11    10
 -0.0175829042     1     3    11    11
 0.0000000001     1     3    11    16
 0.0072962999     1     3    11    17
 -0.0000000002     1     3    11    18
 0.0000016641     1     3    12     6
 0.0154920382     1     3    12     7
 -0.0197224070     1     3    12    12
 0.0000000002     1     3    12    15
 0.0154920382     1     3    13     6
 -0.0000016641     1     3    13     7
 0.0000000002     1     3    13     8
 -0.0197224070     1     3    13    13
 -0.0000000002     1     3    13    14
 0.0000000001     1     3    14     6
 0.0138411268     1     3    14     8
 -0.0068037062     1     3    14     9
 -0.0000000002     1     3    14    13
 -0.0194960438     1     3    14    14
 -0.0000000002     1     3    15     7
 0.0068037062     1     3    15     8
 0.0138411268     1     3    15     9
 0.0000000002     1     3    15    12
 -0.0194960438     1     3    15    15
 -0.0000000020     1     3    16     1
 0.1103997526     1     3    16     2
 0.0004882987     1     3    16     4
 0.0112800277     1     3    16    10
 0.0000000001     1     3    16    11
 -0.0103923664     1     3    16    16
 -0.0000000001     1     3    16    17
 0.0094008294     1     3    16    18
 -0.1487557785     1     3    17     1
 0.0057871030     1     3    17     5
 0.0069302309     1     3    17    11
 -0.0000000001     1     3    17    16
 -0.0036299183     1     3    17    17
 0.0000000001     1     3    17    18
 -0.0000000020     1     3    18     1
 0.1128274844     1     3    18     2
 -0.0004304683     1     3    18     4
 -0.0106042044     1     3    18    10
 -0.0000000001     1     3    18    11
 0.0091466108     1     3    18    16
 0.0000000001     1     3    18    17
 -0.0094856872     1     3    18    18
 -0.0027456479     1     3    19    19
 0.0000814634     1     4     2     1
 0.0000039992     1     4     2     3
 0.0000019926     1     4     2     5
 0.0000015823     1     4     2    11
 0.0000001675     1     4     2    17
 0.0000000066     1     4     3     1
 -0.3756607075     1     4     3     2
 -0.0007153830     1     4     3    10
 0.0011907103     1     4     3    16
 -0.0003957938     1     4     3    18
 -0.5443720008     1     4     4     1
 0.0001602853     1     4     4     3
 -0.0001015691     1     4     4     5
 -0.0000698501     1     4     4    11
 -0.0005418682     1     4     4    17
 -0.0000000007     1     4     5     1
 0.0365001422     1     4     5     2
 0.0000000001     1     4     5     5
 0.0181272557     1     4     5    10
 0.0000000001     1     4     5    11
 -0.0153392877     1     4     5    16
 -0.0000000001     1     4     5    17
 0.0154121760     1     4     5    18
 0.0000000001     1     4     6     6
 0.0000000001     1     4     6     7
 0.0149927842     1     4     6     8
 -0.0105579402     1     4     6     9
 -0.0000000001     1     4     6    13
 -0.0222748049     1     4     6    14
 0.0035186192     1     4     6    15
 0.0000000001     1     4     7     6
 0.0000000003     1     4     7     7
 -0.0105579402     1     4     7     8
 -0.0149927842     1     4     7     9
 -0.0000000003     1     4     7    12
 0.0035186192     1     4     7    14
 0.0222748049     1     4     7    15
 0.0148948759     1     4     8     6
 -0.0104889931     1     4     8     7
 0.0000000003     1     4     8     8
 0.0131134442     1     4     8    12
 -0.0186259726     1     4     8    13
 -0.0000000003     1     4     8    14
 -0.0000000001     1     4     8    15
 -0.0104889931     1     4     9     6
 -0.0148948759     1     4     9     7
 0.0000000001     1     4     9     9
 0.0186259726     1     4     9    12
 0.0131134442     1     4     9    13
 0.0000000001     1     4     9    14
 -0.0000000001     1     4     9    15
 0.0160097260     1     4    10     1
 0.0008216218     1     4    10     3
 0.0177123925     1     4    10     5
 0.0000000001     1     4    10    10
 0.0217435612     1     4    10    11
 -0.0000000001     1     4    10    16
 -0.0087401809     1     4    10    17
 0.0000000001     1     4    10    18
 0.0000000012     1     4    11     1
 -0.0664453928     1     4    11     2
 0.0000000002     1     4    11     5
 0.0155711000     1     4    11    10
 0.0000000002     1     4    11    11
 -0.0131815406     1     4    11    16
 -0.0000000001     1     4    11    17
 0.0139184740     1     4    11    18
 -0.0000000002     1     4    12     7
 0.0090854515     1     4    12     8
 0.0129047235     1     4    12     9
 0.0000000002     1     4    12    12
 -0.0031083079     1     4    12    14
 -0.0196910309     1     4    12    15
 -0.0000000001     1     4    13     6
 -0.0129047235     1     4    13     8
 0.0090854515     1     4    13     9
 0.0000000002     1     4    13    13
 0.0196910309     1     4    13    14
 -0.0031083079     1     4    13    15
 -0.0152235722     1     4    14     6
 0.0024047777     1     4    14     7
 -0.0000000002     1     4    14     8
 -0.0030707367     1     4    14    12
 0.0194530183     1     4    14    13
 0.0000000002     1     4    14    14
 0.0024047777     1     4    15     6
 0.0152235722     1     4    15     7
 -0.0194530183     1     4    15    12
 -0.0030707367     1     4    15    13
 0.0000000002     1     4    15    15
 0.1224889879     1     4    16     1
 -0.0004882987     1     4    16     3
 -0.0105511841     1     4    16     5
 -0.0000000001     1     4    16    10
 -0.0130335609     1     4    16    11
 0.0000000001     1     4    16    16
 0.0055597160     1     4    16    17
 -0.0000000001     1     4    16    18
 0.0000000026     1     4    17     1
 -0.1515121308     1     4    17     2
 -0.0062761865     1     4    17    10
 -0.0000000001     1     4    17    11
 0.0057537556     1     4    17    16
 0.0000000001     1     4    17    17
 -0.0051466057     1     4    17    18
 0.1064823014     1     4    18     1
 0.0004304683     1     4    18     3
 0.0098846068     1     4    18     5
 0.0126719357     1     4    18    11
 -0.0000000001     1     4    18    16
 -0.0045042362     1     4    18    17
 0.0000000001     1     4    18    18
 0.0017301927     1     5     2     2
 -0.0000019926     1     5     2     4
 -0.0000354837     1     5     2    10
 0.0000286105     1     5     2    16
 -0.0000290233     1     5     2    18
 -0.0023879693     1     5     3     1
 0.0010103500     1     5     3     3
 -0.0066889916     1     5     3    11
 0.0031421158     1     5     3    17
 -0.0000000007     1     5     4     1
 0.0364977172     1     5     4     2
 0.0001015691     1     5     4     4
 0.0005184579     1     5     4    10
 -0.0049178213     1     5     4    16
 -0.0000000001     1     5     4    17
 0.0056485324     1     5     4    18
 -0.5023508945     1     5     5     1
 0.0000000001     1     5     5     2
 0.0174065820     1     5     5     3
 -0.0000000001     1     5     5     4
 0.0030541211     1     5     5    11
 0.0088505676     1     5     5    17
 0.0000000001     1     5     6     2
 0.0015319113     1     5     6     6
 -0.0000000875     1     5     6    12
 -0.0008145107     1     5     6    13
 0.0015319113     1     5     7     7
 -0.0008145107     1     5     7    12
 0.0000000875     1     5     7    13
 0.0015110552     1     5     8     8
 -0.0009720839     1     5     8    14
 -0.0004778349     1     5     8    15
 0.0015110552     1     5     9     9
 0.0004778349     1     5     9    14
 -0.0009720839     1     5     9    15
 -0.0000000060     1     5    10     1
 0.3394454730     1     5    10     2
 0.0000000001     1     5    10     3
 -0.0177123925     1     5    10     4
 0.0033737920     1     5    10    10
 0.0057546867     1     5    10    16
 0.0000000001     1     5    10    17
 0.0089973173     1     5    10    18
 -0.1770006528     1     5    11     1
 0.0141968314     1     5    11     3
 -0.0000000002     1     5    11     4
 0.0091051743     1     5    11    11
 0.0119056018     1     5    11    17
 0.0000000001     1     5    11    18
 -0.0000000920     1     5    12     6
 -0.0008563598     1     5    12     7
 0.0019266713     1     5    12    12
 -0.0008563598     1     5    13     6
 0.0000000920     1     5    13     7
 0.0019266713     1     5    13    13
 -0.0007030226     1     5    14     8
 0.0003455758     1     5    14     9
 0.0016052045     1     5    14    14
 -0.0003455758     1     5    15     8
 -0.0007030226     1     5    15     9
 0.0016052045     1     5    15    15
 0.0000000024     1     5    16     1
 -0.1380308509     1     5    16     2
 0.0105511841     1     5    16     4
 -0.0013275345     1     5    16    10
 -0.0000000001     1     5    16    11
 -0.0075441516     1     5    16    16
 -0.0000000001     1     5    16    17
 -0.0069625960     1     5    16    18
 0.0886417993     1     5    17     1
 -0.0057871030     1     5    17     3
 -0.0007505491     1     5    17    11
 -0.0000000001     1     5    17    16
 -0.0055174149     1     5    17    17
 -0.0000000001     1     5    17    18
 -0.0000000020     1     5    18     1
 0.1164363624     1     5    18     2
 -0.0098846068     1     5    18     4
 0.0011184691     1     5    18    10
 0.0000000001     1     5    18    11
 0.0062475730     1     5    18    16
 0.0095661110     1     5    18    18
 0.0008969385     1     5    19    19
 -0.0000203796     1     6     2     8
 0.0000143514     1     6     2     9
 0.0000271020     1     6     2    14
 -0.0000042812     1     6     2    15
 0.0000007978     1     6     3    12
 0.0074272416     1     6     3    13
 0.0001558211     1     6     4     8
 -0.0001097295     1     6     4     9
 -0.0071928991     1     6     4    14
 0.0011362198     1     6     4    15
 0.0000000001     1     6     5     2
 0.0000000073     1     6     5    12
 0.0000677689     1     6     5    13
 -0.5115240907     1     6     6     1
 -0.0000000015     1     6     6     2
 0.0185093907     1     6     6     3
 -0.0000000001     1     6     6     4
 -0.0015319113     1     6     6     5
 0.0035261673     1     6     6    11
 0.0099281093     1     6     6    17
 -0.0047445219     1     6     6    19
 0.0000000013     1     6     7     2
 -0.0000000001     1     6     7     4
 -0.0050048951     1     6     7    19
 -0.0000000049     1     6     8     1
 0.2846027784     1     6     8     2
 0.0000000001     1     6     8     3
 -0.0148948759     1     6     8     4
 0.0016089961     1     6     8    10
 0.0054710535     1     6     8    16
 0.0063108893     1     6     8    18
 0.0000000036     1     6     9     1
 -0.2004176858     1     6     9     2
 -0.0000000001     1     6     9     3
 0.0104889931     1     6     9     4
 -0.0011330573     1     6     9    10
 -0.0038527238     1     6     9    16
 -0.0044441373     1     6     9    18
 0.0000369178     1     6    10     8
 -0.0000259976     1     6    10     9
 0.0002302626     1     6    10    14
 -0.0000363732     1     6    10    15
 -0.0000000847     1     6    11    12
 -0.0007889063     1     6    11    13
 0.0000218308     1     6    12     1
 -0.0000000005     1     6    12     2
 -0.0000016641     1     6    12     3
 0.0000000920     1     6    12     5
 -0.0000007100     1     6    12    11
 -0.0000015397     1     6    12    17
 0.0025958446     1     6    12    19
 0.2032439996     1     6    13     1
 0.0000000005     1     6    13     2
 -0.0154920382     1     6    13     3
 0.0000000001     1     6    13     4
 0.0008563598     1     6    13     5
 -0.0066100786     1     6    13    11
 -0.0143345183     1     6    13    17
 0.0024602698     1     6    13    19
 0.0000000031     1     6    14     1
 -0.1943178034     1     6    14     2
 -0.0000000001     1     6    14     3
 0.0152235722     1     6    14     4
 -0.0010287638     1     6    14    10
 -0.0108680970     1     6    14    16
 -0.0000000001     1     6    14    17
 -0.0109790041     1     6    14    18
 -0.0000000007     1     6    15     1
 0.0306952346     1     6    15     2
 -0.0024047777     1     6    15     4
 0.0001625077     1     6    15    10
 0.0017167690     1     6    15    16
 0.0017342884     1     6    15    18
 -0.0000217763     1     6    16     8
 0.0000153349     1     6    16     9
 -0.0014419215     1     6    16    14
 0.0002277718     1     6    16    15
 -0.0000002290     1     6    17    12
 -0.0021318912     1     6    17    13
 -0.0001152506     1     6    18     8
 0.0000811596     1     6    18     9
 -0.0020205280     1     6    18    14
 0.0003191708     1     6    18    15
 -0.0040962447     1     6    19    12
 -0.0038823076     1     6    19    13
 -0.0000000001     1     6    19    14
 0.0000143514     1     7     2     8
 0.0000203796     1     7     2     9
 -0.0000042812     1     7     2    14
 -0.0000271020     1     7     2    15
 0.0074272416     1     7     3    12
 -0.0000007978     1     7     3    13
 -0.0000000001     1     7     3    15
 -0.0001097295     1     7     4     8
 -0.0001558211     1     7     4     9
 -0.0000000001     1     7     4    12
 0.0011362198     1     7     4    14
 0.0071928991     1     7     4    15
 0.0000677689     1     7     5    12
 -0.0000000073     1     7     5    13
 0.0000000013     1     7     6     2
 -0.0000000001     1     7     6     4
 -0.0050048951     1     7     6    19
 -0.5115240907     1     7     7     1
 0.0000000014     1     7     7     2
 0.0185093907     1     7     7     3
 -0.0000000003     1     7     7     4
 -0.0015319113     1     7     7     5
 0.0035261673     1     7     7    11
 0.0000000001     1     7     7    16
 0.0099281093     1     7     7    17
 0.0000000001     1     7     7    18
 0.0047445219     1     7     7    19
 0.0000000035     1     7     8     1
 -0.2004176858     1     7     8     2
 -0.0000000001     1     7     8     3
 0.0104889931     1     7     8     4
 -0.0011330573     1     7     8    10
 -0.0038527238     1     7     8    16
 -0.0044441373     1     7     8    18
 -0.0000000001     1     7     8    19
 0.0000000050     1     7     9     1
 -0.2846027784     1     7     9     2
 -0.0000000001     1     7     9     3
 0.0148948759     1     7     9     4
 -0.0016089961     1     7     9    10
 -0.0054710535     1     7     9    16
 -0.0063108893     1     7     9    18
 -0.0000259976     1     7    10     8
 -0.0000369178     1     7    10     9
 -0.0000363732     1     7    10    14
 -0.0002302626     1     7    10    15
 -0.0007889063     1     7    11    12
 0.0000000847     1     7    11    13
 0.2032439996     1     7    12     1
 -0.0000000005     1     7    12     2
 -0.0154920382     1     7    12     3
 0.0000000002     1     7    12     4
 0.0008563598     1     7    12     5
 -0.0066100786     1     7    12    11
 -0.0000000001     1     7    12    16
 -0.0143345183     1     7    12    17
 -0.0000000001     1     7    12    18
 -0.0024602698     1     7    12    19
 -0.0000218308     1     7    13     1
 -0.0000000005     1     7    13     2
 0.0000016641     1     7    13     3
 -0.0000000920     1     7    13     5
 0.0000007100     1     7    13    11
 0.0000015397     1     7    13    17
 0.0025958446     1     7    13    19
 -0.0000000003     1     7    14     1
 0.0306952346     1     7    14     2
 -0.0024047777     1     7    14     4
 0.0001625077     1     7    14    10
 0.0017167690     1     7    14    16
 0.0017342884     1     7    14    18
 0.0000000001     1     7    14    19
 -0.0000000038     1     7    15     1
 0.1943178034     1     7    15     2
 0.0000000002     1     7    15     3
 -0.0152235722     1     7    15     4
 0.0010287638     1     7    15    10
 0.0108680970     1     7    15    16
 0.0000000001     1     7    15    17
 0.0109790041     1     7    15    18
 0.0000153349     1     7    16     8
 0.0000217763     1     7    16     9
 0.0002277718     1     7    16    14
 0.0014419215     1     7    16    15
 -0.0021318912     1     7    17    12
 0.0000002290     1     7    17    13
 0.0000811596     1     7    18     8
 0.0001152506     1     7    18     9
 0.0003191708     1     7    18    14
 0.0020205280     1     7    18    15
 0.0038823076     1     7    19    12
 -0.0040962447     1     7    19    13
 0.0000203796     1     8     2     6
 -0.0000143514     1     8     2     7
 0.0000196960     1     8     2    12
 -0.0000279756     1     8     2    13
 0.0057141182     1     8     3    14
 0.0028088162     1     8     3    15
 -0.0001558211     1     8     4     6
 0.0001097295     1     8     4     7
 0.0038966399     1     8     4    12
 -0.0055346794     1     8     4    13
 -0.0000000001     1     8     4    14
 -0.0000000001     1     8     4    15
 -0.0002367575     1     8     5    14
 -0.0001163798     1     8     5    15
 -0.0000000049     1     8     6     1
 0.2846223736     1     8     6     2
 0.0000000001     1     8     6     3
 -0.0149927842     1     8     6     4
 0.0016179201     1     8     6    10
 0.0055065104     1     8     6    16
 0.0064771132     1     8     6    18
 0.0000000035     1     8     7     1
 -0.2004314848     1     8     7     2
 -0.0000000001     1     8     7     3
 0.0105579402     1     8     7     4
 -0.0011393417     1     8     7    10
 -0.0038776925     1     8     7    16
 -0.0045611924     1     8     7    18
 -0.0000000001     1     8     7    19
 -0.5165047679     1     8     8     1
 0.0000000016     1     8     8     2
 0.0181763857     1     8     8     3
 -0.0000000003     1     8     8     4
 -0.0015110552     1     8     8     5
 0.0039388902     1     8     8    11
 0.0000000001     1     8     8    16
 0.0101774512     1     8     8    17
 0.0000000001     1     8     8    18
 0.0031951889     1     8     8    19
 -0.0000000008     1     8     9     2
 0.0063154449     1     8     9    19
 -0.0000369178     1     8    10     6
 0.0000259976     1     8    10     7
 -0.0002015543     1     8    10    12
 0.0002862821     1     8    10    13
 -0.0003178478     1     8    11    14
 -0.0001562404     1     8    11    15
 -0.0000000021     1     8    12     1
 0.1181387379     1     8    12     2
 -0.0090854515     1     8    12     4
 0.0006566028     1     8    12    10
 0.0062327813     1     8    12    16
 0.0000000001     1     8    12    17
 0.0063409785     1     8    12    18
 0.0000000001     1     8    12    19
 0.0000000033     1     8    13     1