&FCI NORB=  6,NELEC=  6,MS2=0,
 ORBSYM=1,1,1,1,1,1
 ISYM=1,
&END
 0.3496325769     1     1     2     2
 0.0000000002     1     1     2     4
 0.0000000001     1     1     2     5
 0.3496325769     1     1     3     3
 -0.0000000001     1     1     3     4
 -0.0000000002     1     1     3     5
 -0.0000000001     1     1     3     6
 0.0000000002     1     1     4     2
 -0.0000000001     1     1     4     3
 0.3516938694     1     1     4     4
 0.0000000001     1     1     5     2
 -0.0000000002     1     1     5     3
 0.3516938694     1     1     5     5
 -0.0000000001     1     1     6     3
 0.1756497480     1     1     6     6
 -0.3496325769     1     2     2     1
 0.0000000009     1     2     2     6
 0.0000000048     1     2     3     6
 -0.0000000002     1     2     4     1
 -0.0000000001     1     2     4     3
 -0.1889446446     1     2     4     6
 -0.0000000001     1     2     5     1
 -0.0193695543     1     2     5     6
 0.0005332422     1     2     6     4
 0.0000546650     1     2     6     5
 0.0000000001     1     3     2     4
 0.0000000048     1     3     2     6
 -0.3496325769     1     3     3     1
 -0.0000000001     1     3     3     5
 -0.0000000006     1     3     3     6
 0.0000000001     1     3     4     1
 0.0000000001     1     3     4     2
 -0.0193695543     1     3     4     6
 0.0000000002     1     3     5     1
 0.1889446446     1     3     5     6
 0.0000000001     1     3     6     1
 0.0000546650     1     3     6     4
 -0.0005332422     1     3     6     5
 -0.0000000002     1     4     2     1
 -0.0000000001     1     4     2     3
 -0.1894778868     1     4     2     6
 0.0000000001     1     4     3     1
 -0.0194242193     1     4     3     6
 -0.3516938694     1     4     4     1
 -0.0000000018     1     4     4     6
 0.0000000043     1     4     5     6
 -0.0005332422     1     4     6     2
 -0.0000546650     1     4     6     3
 -0.0000000001     1     5     2     1
 -0.0194242193     1     5     2     6
 0.0000000002     1     5     3     1
 0.0000000001     1     5     3     3
 0.1894778868     1     5     3     6
 0.0000000043     1     5     4     6
 -0.3516938694     1     5     5     1
 0.0000000016     1     5     5     6
 -0.0000546650     1     5     6     2
 0.0005332422     1     5     6     3
 -0.0000000001     1     5     6     6
 -0.0000000009     1     6     2     2
 -0.0000000048     1     6     2     3
 0.1894778868     1     6     2     4
 0.0194242193     1     6     2     5
 0.0000000001     1     6     3     1
 -0.0000000048     1     6     3     2
 0.0000000006     1     6     3     3
 0.0194242193     1     6     3     4
 -0.1894778868     1     6     3     5
 0.1889446446     1     6     4     2
 0.0193695543     1     6     4     3
 0.0000000018     1     6     4     4
 -0.0000000043     1     6     4     5
 0.0193695543     1     6     5     2
 -0.1889446446     1     6     5     3
 -0.0000000043     1     6     5     4
 -0.0000000016     1     6     5     5
 -0.1756497480     1     6     6     1
 0.0000000001     1     6     6     5
 -0.3496325769     2     1     1     2
 -0.0000000002     2     1     1     4
 -0.0000000001     2     1     1     5
 -0.0000000001     2     1     3     4
 0.0005332422     2     1     4     6
 0.0000546650     2     1     5     6
 0.0000000009     2     1     6     2
 0.0000000048     2     1     6     3
 -0.1889446446     2     1     6     4
 -0.0193695543     2     1     6     5
 0.3496325769     2     2     1     1
 -0.0000000009     2     2     1     6
 0.3503929912     2     2     3     3
 0.0000000047     2     2     3     4
 0.0000000014     2     2     3     5
 0.0000000047     2     2     4     3
 0.1585478090     2     2     4     4
 -0.0198655286     2     2     4     5
 0.0000000014     2     2     5     3
 -0.0198655286     2     2     5     4
 0.3502940428     2     2     5     5
 -0.0000000009     2     2     6     1
 0.3592700472     2     2     6     6
 -0.0000000001     2     3     1     4
 -0.0000000048     2     3     1     6
 -0.3503929912     2     3     3     2
 -0.0000000011     2     3     3     4
 0.0000000047     2     3     3     5
 -0.0000000047     2     3     4     2
 -0.0198655286     2     3     4     4
 -0.0021571858     2     3     4     5
 -0.0000000014     2     3     5     2
 0.1939034197     2     3     5     4
 0.0198655286     2     3     5     5
 -0.0000000048     2     3     6     1
 0.0000000002     2     4     1     1
 0.0000000001     2     4     1     3
 0.1894778868     2     4     1     6
 0.0000000001     2     4     3     1
 -0.0000000047     2     4     3     2
 0.0000000011     2     4     3     3
 -0.1960606055     2     4     3     5
 -0.1585478090     2     4     4     2
 0.0198655286     2     4     4     3
 -0.0000000048     2     4     4     5
 0.0198655286     2     4     5     2
 -0.1939034197     2     4     5     3
 -0.0000000011     2     4     5     5
 0.0000000001     2     4     5     6
 0.1889446446     2     4     6     1
 0.0000000001     2     4     6     5
 -0.0000000002     2     4     6     6
 0.0000000001     2     5     1     1
 0.0194242193     2     5     1     6
 -0.0000000014     2     5     3     2
 -0.0000000047     2     5     3     3
 0.1960606055     2     5     3     4
 0.0198655286     2     5     4     2
 0.0021571858     2     5     4     3
 0.0000000048     2     5     4     4
 -0.3502940428     2     5     5     2
 -0.0198655286     2     5     5     3
 0.0000000011     2     5     5     4
 0.0193695543     2     5     6     1
 -0.0000000001     2     5     6     4
 0.0000000001     2     5     6     6
 0.0000000009     2     6     1     2
 0.0000000048     2     6     1     3
 -0.1894778868     2     6     1     4
 -0.0194242193     2     6     1     5
 -0.0005332422     2     6     4     1
 -0.0000546650     2     6     5     1
 -0.0000000001     2     6     5     4
 -0.3592700472     2     6     6     2
 0.0000000002     2     6     6     4
 -0.0000000001     2     6     6     5
 -0.3496325769     3     1     1     3
 0.0000000001     3     1     1     4
 0.0000000002     3     1     1     5
 0.0000000001     3     1     1     6
 0.0000000001     3     1     2     4
 0.0000000001     3     1     4     2
 0.0000546650     3     1     4     6
 -0.0000000001     3     1     5     3
 -0.0005332422     3     1     5     6
 0.0000000048     3     1     6     2
 -0.0000000006     3     1     6     3
 -0.0193695543     3     1     6     4
 0.1889446446     3     1     6     5
 -0.0000000048     3     2     1     6
 -0.3503929912     3     2     2     3
 -0.0000000047     3     2     2     4
 -0.0000000014     3     2     2     5
 -0.0000000001     3     2     4     1
 -0.0000000011     3     2     4     3
 -0.0198655286     3     2     4     4
 0.1939034197     3     2     4     5
 0.0000000047     3     2     5     3
 -0.0021571858     3     2     5     4
 0.0198655286     3     2     5     5
 -0.0000000048     3     2     6     1
 0.3496325769     3     3     1     1
 0.0000000001     3     3     1     5
 0.0000000006     3     3     1     6
 0.3503929912     3     3     2     2
 0.0000000011     3     3     2     4
 -0.0000000047     3     3     2     5
 0.0000000011     3     3     4     2
 0.3502940428     3     3     4     4
 0.0198655286     3     3     4     5
 0.0000000001     3     3     5     1
 -0.0000000047     3     3     5     2
 0.0198655286     3     3     5     4
 0.1585478090     3     3     5     5
 0.0000000006     3     3     6     1
 0.3592700472     3     3     6     6
 -0.0000000001     3     4     1     1
 0.0194242193     3     4     1     6
 -0.0000000001     3     4     2     1
 0.0000000047     3     4     2     2
 -0.0000000011     3     4     2     3
 0.1960606055     3     4     2     5
 0.0198655286     3     4     4     2
 -0.3502940428     3     4     4     3
 0.0000000014     3     4     4     5
 0.0021571858     3     4     5     2
 -0.0198655286     3     4     5     3
 -0.0000000048     3     4     5     5
 0.0193695543     3     4     6     1
 -0.0000000001     3     4     6     6
 -0.0000000002     3     5     1     1
 -0.0000000001     3     5     1     3
 -0.1894778868     3     5     1     6
 0.0000000014     3     5     2     2
 0.0000000047     3     5     2     3
 -0.1960606055     3     5     2     4
 -0.1939034197     3     5     4     2
 -0.0198655286     3     5     4     3
 -0.0000000014     3     5     4     4
 -0.0198655286     3     5     5     2
 -0.1585478090     3     5     5     3
 0.0000000048     3     5     5     4
 -0.0000000001     3     5     5     6
 -0.1889446446     3     5     6     1
 0.0000000002     3     5     6     6
 -0.0000000001     3     6     1     1
 0.0000000048     3     6     1     2
 -0.0000000006     3     6     1     3
 -0.0194242193     3     6     1     4
 0.1894778868     3     6     1     5
 -0.0000546650     3     6     4     1
 0.0005332422     3     6     5     1
 0.0000000001     3     6     5     5
 -0.3592700472     3     6     6     3
 0.0000000001     3     6     6     4
 -0.0000000002     3     6     6     5
 -0.0000000002     4     1     1     2
 0.0000000001     4     1     1     3
 -0.3516938694     4     1     1     4
 -0.0005332422     4     1     2     6
 -0.0000000001     4     1     3     2
 -0.0000546650     4     1     3     6
 -0.1894778868     4     1     6     2
 -0.0194242193     4     1     6     3
 -0.0000000018     4     1     6     4
 0.0000000043     4     1     6     5
 0.0000000002     4     2     1     1
 0.0000000001     4     2     1     3
 0.1889446446     4     2     1     6
 -0.0000000047     4     2     2     3
 -0.1585478090     4     2     2     4
 0.0198655286     4     2     2     5
 0.0000000001     4     2     3     1
 0.0000000011     4     2     3     3
 0.0198655286     4     2     3     4
 -0.1939034197     4     2     3     5
 -0.1960606055     4     2     5     3
 -0.0000000048     4     2     5     4
 -0.0000000011     4     2     5     5
 0.0000000001     4     2     5     6
 0.1894778868     4     2     6     1
 0.0000000001     4     2     6     5
 -0.0000000002     4     2     6     6
 -0.0000000001     4     3     1     1
 -0.0000000001     4     3     1     2
 0.0193695543     4     3     1     6
 0.0000000047     4     3     2     2
 0.0198655286     4     3     2     4
 0.0021571858     4     3     2     5
 -0.0000000011     4     3     3     2
 -0.3502940428     4     3     3     4
 -0.0198655286     4     3     3     5
 0.1960606055     4     3     5     2
 0.0000000014     4     3     5     4
 -0.0000000048     4     3     5     5
 0.0194242193     4     3     6     1
 -0.0000000001     4     3     6     6
 0.3516938694     4     4     1     1
 0.0000000018     4     4     1     6
 0.1585478090     4     4     2     2
 -0.0198655286     4     4     2     3
 0.0000000048     4     4     2     5
 -0.0198655286     4     4     3     2
 0.3502940428     4     4     3     3
 -0.0000000014     4     4     3     5
 0.0000000048     4     4     5     2
 -0.0000000014     4     4     5     3
 0.3541389947     4     4     5     5
 0.0000000018     4     4     6     1
 0.3607709768     4     4     6     6
 -0.0000000043     4     5     1     6
 -0.0198655286     4     5     2     2
 -0.0021571858     4     5     2     3
 -0.0000000048     4     5     2     4
 0.1939034197     4     5     3     2
 0.0198655286     4     5     3     3
 0.0000000014     4     5     3     4
 0.0000000011     4     5     5     2
 0.0000000048     4     5     5     3
 -0.3541389947     4     5     5     4
 -0.0000000043     4     5     6     1
 -0.0000000001     4     5     6     2
 -0.1889446446     4     6     1     2
 -0.0193695543     4     6     1     3
 -0.0000000018     4     6     1     4
 0.0000000043     4     6     1     5
 0.0005332422     4     6     2     1
 0.0000546650     4     6     3     1
 -0.0000000001     4     6     5     2
 0.0000000002     4     6     6     2
 0.0000000001     4     6     6     3
 -0.3607709768     4     6     6     4
 -0.0000000001     5     1     1     2
 0.0000000002     5     1     1     3
 -0.3516938694     5     1     1     5
 -0.0000546650     5     1     2     6
 0.0000000001     5     1     3     3
 0.0005332422     5     1     3     6
 -0.0194242193     5     1     6     2
 0.1894778868     5     1     6     3
 0.0000000043     5     1     6     4
 0.0000000016     5     1     6     5
 -0.0000000001     5     1     6     6
 0.0000000001     5     2     1     1
 0.0193695543     5     2     1     6
 -0.0000000014     5     2     2     3
 0.0198655286     5     2     2     4
 -0.3502940428     5     2     2     5
 -0.0000000047     5     2     3     3
 0.0021571858     5     2     3     4
 -0.0198655286     5     2     3     5
 0.1960606055     5     2     4     3
 0.0000000048     5     2     4     4
 0.0000000011     5     2     4     5
 -0.0000000001     5     2     4     6
 0.0194242193     5     2     6     1
 0.0000000001     5     2     6     6
 -0.0000000002     5     3     1     1
 -0.1889446446     5     3     1     6
 0.0000000014     5     3     2     2
 -0.1939034197     5     3     2     4
 -0.0198655286     5     3     2     5
 -0.0000000001     5     3     3     1
 0.0000000047     5     3     3     2
 -0.0198655286     5     3     3     4
 -0.1585478090     5     3     3     5
 -0.1960606055     5     3     4     2
 -0.0000000014     5     3     4     4
 0.0000000048     5     3     4     5
 -0.1894778868     5     3     6     1
 -0.0000000001     5     3     6     5
 0.0000000002     5     3     6     6
 -0.0000000043     5     4     1     6
 -0.0198655286     5     4     2     2
 0.1939034197     5     4     2     3
 0.0000000011     5     4     2     5
 -0.0000000001     5     4     2     6
 -0.0021571858     5     4     3     2
 0.0198655286     5     4     3     3
 0.0000000048     5     4     3     5
 -0.0000000048     5     4     4     2
 0.0000000014     5     4     4     3
 -0.3541389947     5     4     4     5
 -0.0000000043     5     4     6     1
 0.3516938694     5     5     1     1
 -0.0000000016     5     5     1     6
 0.3502940428     5     5     2     2
 0.0198655286     5     5     2     3
 -0.0000000011     5     5     2     4
 0.0198655286     5     5     3     2
 0.1585478090     5     5     3     3
 -0.0000000048     5     5     3     4
 0.0000000001     5     5     3     6
 -0.0000000011     5     5     4     2
 -0.0000000048     5     5     4     3
 0.3541389947     5     5     4     4
 -0.0000000016     5     5     6     1
 0.0000000001     5     5     6     3
 0.3607709768     5     5     6     6
 -0.0193695543     5     6     1     2
 0.1889446446     5     6     1     3
 0.0000000043     5     6     1     4
 0.0000000016     5     6     1     5
 0.0000546650     5     6     2     1
 0.0000000001     5     6     2     4
 -0.0005332422     5     6     3     1
 -0.0000000001     5     6     3     5
 0.0000000001     5     6     4     2
 0.0000000001     5     6     6     1
 -0.0000000001     5     6     6     2
 -0.0000000002     5     6     6     3
 -0.3607709768     5     6     6     5
 0.0000000001     6     1     1     3
 -0.1756497480     6     1     1     6
 -0.0000000009     6     1     2     2
 -0.0000000048     6     1     2     3
 0.1889446446     6     1     2     4
 0.0193695543     6     1     2     5
 -0.0000000048     6     1     3     2
 0.0000000006     6     1     3     3
 0.0193695543     6     1     3     4
 -0.1889446446     6     1     3     5
 0.1894778868     6     1     4     2
 0.0194242193     6     1     4     3
 0.0000000018     6     1     4     4
 -0.0000000043     6     1     4     5
 0.0194242193     6     1     5     2
 -0.1894778868     6     1     5     3
 -0.0000000043     6     1     5     4
 -0.0000000016     6     1     5     5
 0.0000000001     6     1     5     6
 -0.0005332422     6     2     1     4
 -0.0000546650     6     2     1     5
 0.0000000009     6     2     2     1
 -0.3592700472     6     2     2     6
 0.0000000048     6     2     3     1
 -0.1894778868     6     2     4     1
 -0.0000000001     6     2     4     5
 0.0000000002     6     2     4     6
 -0.0194242193     6     2     5     1
 -0.0000000001     6     2     5     6
 -0.0000000001     6     3     1     1
 -0.0000546650     6     3     1     4
 0.0005332422     6     3     1     5
 0.0000000048     6     3     2     1
 -0.0000000006     6     3     3     1
 -0.3592700472     6     3     3     6
 -0.0194242193     6     3     4     1
 0.0000000001     6     3     4     6
 0.1894778868     6     3     5     1
 0.0000000001     6     3     5     5
 -0.0000000002     6     3     5     6
 0.0005332422     6     4     1     2
 0.0000546650     6     4     1     3
 -0.1889446446     6     4     2     1
 -0.0000000001     6     4     2     5
 0.0000000002     6     4     2     6
 -0.0193695543     6     4     3     1
 0.0000000001     6     4     3     6
 -0.0000000018     6     4     4     1
 -0.3607709768     6     4     4     6
 0.0000000043     6     4     5     1
 0.0000546650     6     5     1     2
 -0.0005332422     6     5     1     3
 0.0000000001     6     5     1     6
 -0.0193695543     6     5     2     1
 0.0000000001     6     5     2     4
 -0.0000000001     6     5     2     6
 0.1889446446     6     5     3     1
 -0.0000000002     6     5     3     6
 0.0000000043     6     5     4     1
 0.0000000001     6     5     4     2
 0.0000000016     6     5     5     1
 -0.0000000001     6     5     5     3
 -0.3607709768     6     5     5     6
 0.1756497480     6     6     1     1
 -0.0000000001     6     6     1     5
 0.3592700472     6     6     2     2
 -0.0000000002     6     6     2     4
 0.0000000001     6     6     2     5
 0.3592700472     6     6     3     3
 -0.0000000001     6     6     3     4
 0.0000000002     6     6     3     5
 -0.0000000002     6     6     4     2
 -0.0000000001     6     6     4     3
 0.3607709768     6     6     4     4
 -0.0000000001     6     6     5     1
 0.0000000001     6     6     5     2
 0.0000000002     6     6     5     3
 0.3607709768     6     6     5     5
0.0 0 0 0 0
 0.3496325769     1     1     2     2
 0.0000000002     1     1     2     4
 0.0000000001     1     1     2     5
 0.3496325769     1     1     3     3
 -0.0000000001     1     1     3     4
 -0.0000000002     1     1     3     5
 -0.0000000001     1     1     3     6
 0.0000000002     1     1     4     2
 -0.0000000001     1     1     4     3
 0.3516938694     1     1     4     4
 0.0000000001     1     1     5     2
 -0.0000000002     1     1     5     3
 0.3516938694     1     1     5     5
 -0.0000000001     1     1     6     3
 0.1756497480     1     1     6     6
 -0.3496325769     1     2     2     1
 0.0000000009     1     2     2     6
 0.0000000048     1     2     3     6
 -0.0000000002     1     2     4     1
 -0.0000000001     1     2     4     3
 -0.1889446446     1     2     4     6
 -0.0000000001     1     2     5     1
 -0.0193695543     1     2     5     6
 0.0005332422     1     2     6     4
 0.0000546650     1     2     6     5
 0.0000000001     1     3     2     4
 0.0000000048     1     3     2     6
 -0.3496325769     1     3     3     1
 -0.0000000001     1     3     3     5
 -0.0000000006     1     3     3     6
 0.0000000001     1     3     4     1
 0.0000000001     1     3     4     2
 -0.0193695543     1     3     4     6
 0.0000000002     1     3     5     1
 0.1889446446     1     3     5     6
 0.0000000001     1     3     6     1
 0.0000546650     1     3     6     4
 -0.0005332422     1     3     6     5
 -0.0000000002     1     4     2     1
 -0.0000000001     1     4     2     3
 -0.1894778868     1     4     2     6
 0.0000000001     1     4     3     1
 -0.0194242193     1     4     3     6
 -0.3516938694     1     4     4     1
 -0.0000000018     1     4     4     6
 0.0000000043     1     4     5     6
 -0.0005332422     1     4     6     2
 -0.0000546650     1     4     6     3
 -0.0000000001     1     5     2     1
 -0.0194242193     1     5     2     6
 0.0000000002     1     5     3     1
 0.0000000001     1     5     3     3
 0.1894778868     1     5     3     6
 0.0000000043     1     5     4     6
 -0.3516938694     1     5     5     1
 0.0000000016     1     5     5     6
 -0.0000546650     1     5     6     2
 0.0005332422     1     5     6     3
 -0.0000000001     1     5     6     6
 -0.0000000009     1     6     2     2
 -0.0000000048     1     6     2     3
 0.1894778868     1     6     2     4
 0.0194242193     1     6     2     5
 0.0000000001     1     6     3     1
 -0.0000000048     1     6     3     2
 0.0000000006     1     6     3     3
 0.0194242193     1     6     3     4
 -0.1894778868     1     6     3     5
 0.1889446446     1     6     4     2
 0.0193695543     1     6     4     3
 0.0000000018     1     6     4     4
 -0.0000000043     1     6     4     5
 0.0193695543     1     6     5     2
 -0.1889446446     1     6     5     3
 -0.0000000043     1     6     5     4
 -0.0000000016     1     6     5     5
 -0.1756497480     1     6     6     1
 0.0000000001     1     6     6     5
 -0.3496325769     2     1     1     2
 -0.0000000002     2     1     1     4
 -0.0000000001     2     1     1     5
 -0.0000000001     2     1     3     4
 0.0005332422     2     1     4     6
 0.0000546650     2     1     5     6
 0.0000000009     2     1     6     2
 0.0000000048     2     1     6     3
 -0.1889446446     2     1     6     4
 -0.0193695543     2     1     6     5
 0.3496325769     2     2     1     1
 -0.0000000009     2     2     1     6
 0.3503929912     2     2     3     3
 0.0000000047     2     2     3     4
 0.0000000014     2     2     3     5
 0.0000000047     2     2     4     3
 0.1585478090     2     2     4     4
 -0.0198655286     2     2     4     5
 0.0000000014     2     2     5     3
 -0.0198655286     2     2     5     4
 0.3502940428     2     2     5     5
 -0.0000000009     2     2     6     1
 0.3592700472     2     2     6     6
 -0.0000000001     2     3     1     4
 -0.0000000048     2     3     1     6
 -0.3503929912     2     3     3     2
 -0.0000000011     2     3     3     4
 0.0000000047     2     3     3     5
 -0.0000000047     2     3     4     2
 -0.0198655286     2     3     4     4
 -0.0021571858     2     3     4     5
 -0.0000000014     2     3     5     2
 0.1939034197     2     3     5     4
 0.0198655286     2     3     5     5
 -0.0000000048     2     3     6     1
 0.0000000002     2     4     1     1
 0.0000000001     2     4     1     3
 0.1894778868     2     4     1     6
 0.0000000001     2     4     3     1
 -0.0000000047     2     4     3     2
 0.0000000011     2     4     3     3
 -0.1960606055     2     4     3     5
 -0.1585478090     2     4     4     2
 0.0198655286     2     4     4     3
 -0.0000000048     2     4     4     5
 0.0198655286     2     4     5     2
 -0.1939034197     2     4     5     3
 -0.0000000011     2     4     5     5
 0.0000000001     2     4     5     6
 0.1889446446     2     4     6     1
 0.0000000001     2     4     6     5
 -0.0000000002     2     4     6     6
 0.0000000001     2     5     1     1
 0.0194242193     2     5     1     6
 -0.0000000014     2     5     3     2
 -0.0000000047     2     5     3     3
 0.1960606055     2     5     3     4
 0.0198655286     2     5     4     2
 0.0021571858     2     5     4     3
 0.0000000048     2     5     4     4
 -0.3502940428     2     5     5     2
 -0.0198655286     2     5     5     3
 0.0000000011     2     5     5     4
 0.0193695543     2     5     6     1
 -0.0000000001     2     5     6     4
 0.0000000001     2     5     6     6
 0.0000000009     2     6     1     2
 0.0000000048     2     6     1     3
 -0.1894778868     2     6     1     4
 -0.0194242193     2     6     1     5
 -0.0005332422     2     6     4     1
 -0.0000546650     2     6     5     1
 -0.0000000001     2     6     5     4
 -0.3592700472     2     6     6     2
 0.0000000002     2     6     6     4
 -0.0000000001     2     6     6     5
 -0.3496325769     3     1     1     3
 0.0000000001     3     1     1     4
 0.0000000002     3     1     1     5
 0.0000000001     3     1     1     6
 0.0000000001     3     1     2     4
 0.0000000001     3     1     4     2
 0.0000546650     3     1     4     6
 -0.0000000001     3     1     5     3
 -0.0005332422     3     1     5     6
 0.0000000048     3     1     6     2
 -0.0000000006     3     1     6     3
 -0.0193695543     3     1     6     4
 0.1889446446     3     1     6     5
 -0.0000000048     3     2     1     6
 -0.3503929912     3     2     2     3
 -0.0000000047     3     2     2     4
 -0.0000000014     3     2     2     5
 -0.0000000001     3     2     4     1
 -0.0000000011     3     2     4     3
 -0.0198655286     3     2     4     4
 0.1939034197     3     2     4     5
 0.0000000047     3     2     5     3
 -0.0021571858     3     2     5     4
 0.0198655286     3     2     5     5
 -0.0000000048     3     2     6     1
 0.3496325769     3     3     1     1
 0.0000000001     3     3     1     5
 0.0000000006     3     3     1     6
 0.3503929912     3     3     2     2
 0.0000000011     3     3     2     4
 -0.0000000047     3     3     2     5
 0.0000000011     3     3     4     2
 0.3502940428     3     3     4     4
 0.0198655286     3     3     4     5
 0.0000000001     3     3     5     1
 -0.0000000047     3     3     5     2
 0.0198655286     3     3     5     4
 0.1585478090     3     3     5     5
 0.0000000006     3     3     6     1
 0.3592700472     3     3     6     6
 -0.0000000001     3     4     1     1
 0.0194242193     3     4     1     6
 -0.0000000001     3     4     2     1
 0.0000000047     3     4     2     2
 -0.0000000011     3     4     2     3
 0.1960606055     3     4     2     5
 0.0198655286     3     4     4     2
 -0.3502940428     3     4     4     3
 0.0000000014     3     4     4     5
 0.0021571858     3     4     5     2
 -0.0198655286     3     4     5     3
 -0.0000000048     3     4     5     5
 0.0193695543     3     4     6     1
 -0.0000000001     3     4     6     6
 -0.0000000002     3     5     1     1
 -0.0000000001     3     5     1     3
 -0.1894778868     3     5     1     6
 0.0000000014     3     5     2     2
 0.0000000047     3     5     2     3
 -0.1960606055     3     5     2     4
 -0.1939034197     3     5     4     2
 -0.0198655286     3     5     4     3
 -0.0000000014     3     5     4     4
 -0.0198655286     3     5     5     2
 -0.1585478090     3     5     5     3
 0.0000000048     3     5     5     4
 -0.0000000001     3     5     5     6
 -0.1889446446     3     5     6     1
 0.0000000002     3     5     6     6
 -0.0000000001     3     6     1     1
 0.0000000048     3     6     1     2
 -0.0000000006     3     6     1     3
 -0.0194242193     3     6     1     4
 0.1894778868     3     6     1     5
 -0.0000546650     3     6     4     1
 0.0005332422     3     6     5     1
 0.0000000001     3     6     5     5
 -0.3592700472     3     6     6     3
 0.0000000001     3     6     6     4
 -0.0000000002     3     6     6     5
 -0.0000000002     4     1     1     2
 0.0000000001     4     1     1     3
 -0.3516938694     4     1     1     4
 -0.0005332422     4     1     2     6
 -0.0000000001     4     1     3     2
 -0.0000546650     4     1     3     6
 -0.1894778868     4     1     6     2
 -0.0194242193     4     1     6     3
 -0.0000000018     4     1     6     4
 0.0000000043     4     1     6     5
 0.0000000002     4     2     1     1
 0.0000000001     4     2     1     3
 0.1889446446     4     2     1     6
 -0.0000000047     4     2     2     3
 -0.1585478090     4     2     2     4
 0.0198655286     4     2     2     5
 0.0000000001     4     2     3     1
 0.0000000011     4     2     3     3
 0.0198655286     4     2     3     4
 -0.1939034197     4     2     3     5
 -0.1960606055     4     2     5     3
 -0.0000000048     4     2     5     4
 -0.0000000011     4     2     5     5
 0.0000000001     4     2     5     6
 0.1894778868     4     2     6     1
 0.0000000001     4     2     6     5
 -0.0000000002     4     2     6     6
 -0.0000000001     4     3     1     1
 -0.0000000001     4     3     1     2
 0.0193695543     4     3     1     6
 0.0000000047     4     3     2     2
 0.0198655286     4     3     2     4
 0.0021571858     4     3     2     5
 -0.0000000011     4     3     3     2
 -0.3502940428     4     3     3     4
 -0.0198655286     4     3     3     5
 0.1960606055     4     3     5     2
 0.0000000014     4     3     5     4
 -0.0000000048     4     3     5     5
 0.0194242193     4     3     6     1
 -0.0000000001     4     3     6     6
 0.3516938694     4     4     1     1
 0.0000000018     4     4     1     6
 0.1585478090     4     4     2     2
 -0.0198655286     4     4     2     3
 0.0000000048     4     4     2     5
 -0.0198655286     4     4     3     2
 0.3502940428     4     4     3     3
 -0.0000000014     4     4     3     5
 0.0000000048     4     4     5     2
 -0.0000000014     4     4     5     3
 0.3541389947     4     4     5     5
 0.0000000018     4     4     6     1
 0.3607709768     4     4     6     6
 -0.0000000043     4     5     1     6
 -0.0198655286     4     5     2     2
 -0.0021571858     4     5     2     3
 -0.0000000048     4     5     2     4
 0.1939034197     4     5     3     2
 0.0198655286     4     5     3     3
 0.0000000014     4     5     3     4
 0.0000000011     4     5     5     2
 0.0000000048     4     5     5     3
 -0.3541389947     4     5     5     4
 -0.0000000043     4     5     6     1
 -0.0000000001     4     5     6     2
 -0.1889446446     4     6     1     2
 -0.0193695543     4     6     1     3
 -0.0000000018     4     6     1     4
 0.0000000043     4     6     1     5
 0.0005332422     4     6     2     1
 0.0000546650     4     6     3     1
 -0.0000000001     4     6     5     2
 0.0000000002     4     6     6     2
 0.0000000001     4     6     6     3