&FCI NORB= 19,NELEC= 14,MS2=0,
 ORBSYM=1,1,1,1,1,1,1,1,1,1,1,1,1,1,1,1,1,1,1
 ISYM=1,
&END
 0.6051098261     1     1     2     2
 0.0140535005     1     1     2     6
 -0.0052918978     1     1     2    10
 0.0209985326     1     1     2    17
 0.9247089438     1     1     3     3
 0.1323763052     1     1     3     7
 0.0982156929     1     1     3    11
 0.1081615639     1     1     3    14
 0.7524582170     1     1     4     4
 0.1290484109     1     1     4    12
 -0.1844866573     1     1     4    13
 0.7524582170     1     1     5     5
 -0.1844866573     1     1     5    12
 -0.1290484109     1     1     5    13
 0.0140535005     1     1     6     2
 0.6557829491     1     1     6     6
 -0.1402860792     1     1     6    10
 0.1375999948     1     1     6    17
 0.1323763052     1     1     7     3
 0.7063521913     1     1     7     7
 0.1461529667     1     1     7    11
 -0.1573698721     1     1     7    14
 0.5742966242     1     1     8     8
 0.1930895981     1     1     8    15
 -0.1703079369     1     1     8    16
 0.5742966242     1     1     9     9
 0.1703079369     1     1     9    15
 0.1930895981     1     1     9    16
 -0.0052918978     1     1    10     2
 -0.1402860792     1     1    10     6
 0.3740642825     1     1    10    10
 -0.0456124071     1     1    10    17
 0.0982156929     1     1    11     3
 0.1461529667     1     1    11     7
 0.4564423144     1     1    11    11
 0.0049600367     1     1    11    14
 0.1290484109     1     1    12     4
 -0.1844866573     1     1    12     5
 0.5554314377     1     1    12    12
 -0.1844866573     1     1    13     4
 -0.1290484109     1     1    13     5
 0.5554314377     1     1    13    13
 0.1081615639     1     1    14     3
 -0.1573698721     1     1    14     7
 0.0049600367     1     1    14    11
 0.5828204991     1     1    14    14
 0.1930895981     1     1    15     8
 0.1703079369     1     1    15     9
 0.6663324083     1     1    15    15
 -0.1703079369     1     1    16     8
 0.1930895981     1     1    16     9
 0.6663324083     1     1    16    16
 0.0209985326     1     1    17     2
 0.1375999948     1     1    17     6
 -0.0456124071     1     1    17    10
 0.6195140110     1     1    17    17
 0.6388653668     1     1    18    18
 0.6388653668     1     1    19    19
 -0.6051098261     1     2     2     1
 -0.0220793273     1     2     2     3
 -0.0279473921     1     2     2     7
 -0.0159408688     1     2     2    11
 0.0116168612     1     2     2    14
 -0.0995200567     1     2     3     6
 0.0560087023     1     2     3    10
 0.0562218215     1     2     3    17
 0.1648826220     1     2     4     8
 0.0586737242     1     2     4     9
 0.1733325323     1     2     4    15
 -0.0694144185     1     2     4    16
 -0.0586737242     1     2     5     8
 0.1648826220     1     2     5     9
 0.0694144185     1     2     5    15
 0.1733325323     1     2     5    16
 -0.0140535005     1     2     6     1
 -0.1005584380     1     2     6     3
 0.2254771341     1     2     6     7
 0.0212560340     1     2     6    11
 -0.1467033987     1     2     6    14
 0.2267866018     1     2     7     6
 -0.0483820474     1     2     7    10
 0.1572490110     1     2     7    17
 0.1640284664     1     2     8     4
 -0.0583697716     1     2     8     5
 0.0591185900     1     2     8    12
 -0.0420740442     1     2     8    13
 0.0583697716     1     2     9     4
 0.1640284664     1     2     9     5
 -0.0420740442     1     2     9    12
 -0.0591185900     1     2     9    13
 0.0052918978     1     2    10     1
 0.0562970556     1     2    10     3
 -0.0479094314     1     2    10     7
 -0.0666292597     1     2    10    11
 0.0963647493     1     2    10    14
 0.0220165419     1     2    11     6
 -0.0669084394     1     2    11    10
 0.0548838645     1     2    11    17
 0.0597395046     1     2    12     8
 -0.0425159422     1     2    12     9
 0.0404633043     1     2    12    15
 -0.1732206608     1     2    12    16
 -0.0425159422     1     2    13     8
 -0.0597395046     1     2    13     9
 -0.1732206608     1     2    13    15
 -0.0404633043     1     2    13    16
 -0.1472575573     1     2    14     6
 0.0965761326     1     2    14    10
 -0.1660537284     1     2    14    17
 0.1720746121     1     2    15     4
 0.0689106597     1     2    15     5
 0.0402005617     1     2    15    12
 -0.1720958777     1     2    15    13
 -0.0689106597     1     2    16     4
 0.1720746121     1     2    16     5
 -0.1720958777     1     2    16    12
 -0.0402005617     1     2    16    13
 -0.0209985326     1     2    17     1
 0.0548437306     1     2    17     3
 0.1554346609     1     2    17     7
 0.0538046013     1     2    17    11
 -0.1653610016     1     2    17    14
 0.0220793273     1     3     2     2
 0.0010149219     1     3     2     6
 -0.0003378993     1     3     2    10
 0.0014264739     1     3     2    17
 -0.9247089438     1     3     3     1
 -0.0303207519     1     3     3     7
 -0.0167596817     1     3     3    11
 0.0232985159     1     3     3    14
 -0.0203913697     1     3     4     4
 -0.0121146718     1     3     4    12
 0.0173190455     1     3     4    13
 -0.0203913697     1     3     5     5
 0.0173190455     1     3     5    12
 0.0121146718     1     3     5    13
 0.1005584380     1     3     6     2
 -0.0127775655     1     3     6     6
 0.0039554022     1     3     6    10
 -0.0144719493     1     3     6    17
 -0.1323763052     1     3     7     1
 -0.0271370714     1     3     7     7
 -0.0099138078     1     3     7    11
 0.0225598843     1     3     7    14
 -0.0108682919     1     3     8     8
 -0.0122406591     1     3     8    15
 0.0107964458     1     3     8    16
 -0.0108682919     1     3     9     9
 -0.0107964458     1     3     9    15
 -0.0122406591     1     3     9    16
 -0.0562970556     1     3    10     2
 0.0032369975     1     3    10     6
 -0.0028685214     1     3    10    10
 0.0051357872     1     3    10    17
 -0.0982156929     1     3    11     1
 -0.0108190127     1     3    11     7
 -0.0053372920     1     3    11    11
 0.0127462536     1     3    11    14
 -0.0074611452     1     3    12     4
 0.0106663982     1     3    12     5
 -0.0117256438     1     3    12    12
 0.0106663982     1     3    13     4
 0.0074611452     1     3    13     5
 -0.0117256438     1     3    13    13
 -0.1081615639     1     3    14     1
 0.0080723773     1     3    14     7
 0.0041536171     1     3    14    11
 -0.0064737174     1     3    14    14
 -0.0102613866     1     3    15     8
 -0.0090506976     1     3    15     9
 -0.0214346097     1     3    15    15
 0.0090506976     1     3    16     8
 -0.0102613866     1     3    16     9
 -0.0214346097     1     3    16    16
 -0.0548437306     1     3    17     2
 -0.0149894596     1     3    17     6
 0.0067176556     1     3    17    10
 -0.0154516577     1     3    17    17
 0.0028874695     1     3    18    18
 0.0028874695     1     3    19    19
 0.0008509679     1     4     2     8
 0.0003028182     1     4     2     9
 0.0012651389     1     4     2    15
 -0.0005066497     1     4     2    16
 -0.0045737939     1     4     3    12
 0.0065386621     1     4     3    13
 -0.7524582170     1     4     4     1
 0.0203913697     1     4     4     3
 -0.0191361426     1     4     4     7
 -0.0087602126     1     4     4    11
 0.0154971418     1     4     4    14
 0.0112545474     1     4     4    18
 0.0023426862     1     4     4    19
 -0.0023426862     1     4     5    18
 0.0112545474     1     4     5    19
 -0.0047243821     1     4     6     8
 -0.0016811783     1     4     6     9
 0.0015949104     1     4     6    15
 -0.0006387132     1     4     6    16
 0.0034704471     1     4     7    12
 -0.0049613255     1     4     7    13
 -0.1640284664     1     4     8     2
 -0.0122394738     1     4     8     6
 0.0059621253     1     4     8    10
 0.0067905127     1     4     8    17
 -0.0583697716     1     4     9     2
 -0.0043554348     1     4     9     6
 0.0021216311     1     4     9    10
 0.0024164140     1     4     9    17
 0.0012179604     1     4    10     8
 0.0004334130     1     4    10     9
 0.0008959518     1     4    10    15
 -0.0003588015     1     4    10    16
 0.0028291136     1     4    11    12
 -0.0040444799     1     4    11    13
 -0.1290484109     1     4    12     1
 0.0074611452     1     4    12     3
 -0.0038038681     1     4    12     7
 -0.0003498633     1     4    12    11
 0.0102594353     1     4    12    14
 0.0019555744     1     4    12    18
 -0.0018408265     1     4    12    19
 0.1844866573     1     4    13     1
 -0.0106663982     1     4    13     3
 0.0054379817     1     4    13     7
 0.0005001620     1     4    13    11
 -0.0146668131     1     4    13    14
 -0.0018408265     1     4    13    18
 -0.0019555744     1     4    13    19
 0.0030710001     1     4    14    12
 -0.0043902791     1     4    14    13
 -0.1720746121     1     4    15     2
 -0.0128973494     1     4    15     6
 0.0091466540     1     4    15    10
 -0.0019353303     1     4    15    17
 0.0689106597     1     4    16     2
 0.0051649970     1     4    16     6
 -0.0036629573     1     4    16    10
 0.0007750410     1     4    16    17
 0.0023623209     1     4    17     8
 0.0008406354     1     4    17     9
 -0.0040867633     1     4    17    15
 0.0016366246     1     4    17    16
 -0.0059297929     1     4    18    12
 0.0055818485     1     4    18    13
 0.0055818485     1     4    19    12
 0.0059297929     1     4    19    13
 -0.0003028182     1     5     2     8
 0.0008509679     1     5     2     9
 0.0005066497     1     5     2    15
 0.0012651389     1     5     2    16
 0.0065386621     1     5     3    12
 0.0045737939     1     5     3    13
 -0.0023426862     1     5     4    18
 0.0112545474     1     5     4    19
 -0.7524582170     1     5     5     1
 0.0203913697     1     5     5     3
 -0.0191361426     1     5     5     7
 -0.0087602126     1     5     5    11
 0.0154971418     1     5     5    14
 -0.0112545474     1     5     5    18
 -0.0023426862     1     5     5    19
 0.0016811783     1     5     6     8
 -0.0047243821     1     5     6     9
 0.0006387132     1     5     6    15
 0.0015949104     1     5     6    16
 -0.0049613255     1     5     7    12
 -0.0034704471     1     5     7    13
 0.0583697716     1     5     8     2
 0.0043554348     1     5     8     6
 -0.0021216311     1     5     8    10
 -0.0024164140     1     5     8    17
 -0.1640284664     1     5     9     2
 -0.0122394738     1     5     9     6
 0.0059621253     1     5     9    10
 0.0067905127     1     5     9    17
 -0.0004334130     1     5    10     8
 0.0012179604     1     5    10     9
 0.0003588015     1     5    10    15
 0.0008959518     1     5    10    16
 -0.0040444799     1     5    11    12
 -0.0028291136     1     5    11    13
 0.1844866573     1     5    12     1
 -0.0106663982     1     5    12     3
 0.0054379817     1     5    12     7
 0.0005001620     1     5    12    11
 -0.0146668131     1     5    12    14
 0.0018408265     1     5    12    18
 0.0019555744     1     5    12    19
 0.1290484109     1     5    13     1
 -0.0074611452     1     5    13     3
 0.0038038681     1     5    13     7
 0.0003498633     1     5    13    11
 -0.0102594353     1     5    13    14
 0.0019555744     1     5    13    18
 -0.0018408265     1     5    13    19
 -0.0043902791     1     5    14    12
 -0.0030710001     1     5    14    13
 -0.0689106597     1     5    15     2
 -0.0051649970     1     5    15     6
 0.0036629573     1     5    15    10
 -0.0007750410     1     5    15    17
 -0.1720746121     1     5    16     2
 -0.0128973494     1     5    16     6
 0.0091466540     1     5    16    10
 -0.0019353303     1     5    16    17
 -0.0008406354     1     5    17     8
 0.0023623209     1     5    17     9
 -0.0016366246     1     5    17    15
 -0.0040867633     1     5    17    16
 -0.0055818485     1     5    18    12
 -0.0059297929     1     5    18    13
 -0.0059297929     1     5    19    12
 0.0055818485     1     5    19    13
 -0.0140535005     1     6     2     1
 -0.0010149219     1     6     2     3
 -0.0013012535     1     6     2     7
 -0.0007702569     1     6     2    11
 0.0005366747     1     6     2    14
 0.0995200567     1     6     3     2
 0.0007995493     1     6     3    10
 0.0008380582     1     6     3    17
 0.0077374556     1     6     4     8
 0.0027533850     1     6     4     9
 0.0147244637     1     6     4    15
 -0.0058967008     1     6     4    16
 -0.0027533850     1     6     5     8
 0.0077374556     1     6     5     9
 0.0058967008     1     6     5    15
 0.0147244637     1     6     5    16
 -0.6557829491     1     6     6     1
 0.0127775655     1     6     6     3
 0.0007880297     1     6     6     7
 0.0059820460     1     6     6    11
 0.0013996349     1     6     6    14
 -0.2267866018     1     6     7     2
 -0.0002792416     1     6     7    10
 0.0160148253     1     6     7    17
 0.0122394738     1     6     8     4
 -0.0043554348     1     6     8     5
 0.0126710086     1     6     8    12
 -0.0090178161     1     6     8    13
 0.0043554348     1     6     9     4
 0.0122394738     1     6     9     5
 -0.0090178161     1     6     9    12
 -0.0126710086     1     6     9    13
 0.1402860792     1     6    10     1
 -0.0032369975     1     6    10     3
 0.0003407355     1     6    10     7
 0.0016948394     1     6    10    11
 -0.0027484394     1     6    10    14
 -0.0220165419     1     6    11     2
 0.0033470033     1     6    11    10
 0.0028698775     1     6    11    17
 0.0060719551     1     6    12     8
 -0.0043213430     1     6    12     9
 0.0020346897     1     6    12    15
 -0.0087103688     1     6    12    16
 -0.0043213430     1     6    13     8
 -0.0060719551     1     6    13     9
 -0.0087103688     1     6    13    15
 -0.0020346897     1     6    13    16
 0.1472575573     1     6    14     2
 -0.0017991537     1     6    14    10
 -0.0057870749     1     6    14    17
 0.0128973494     1     6    15     4
 0.0051649970     1     6    15     5
 0.0030032748     1     6    15    12
 -0.0128568158     1     6    15    13
 -0.0051649970     1     6    16     4
 0.0128973494     1     6    16     5
 -0.0128568158     1     6    16    12
 -0.0030032748     1     6    16    13
 -0.1375999948     1     6    17     1
 0.0149894596     1     6    17     3
 0.0075341496     1     6    17     7
 0.0077462874     1     6    17    11
 0.0019520233     1     6    17    14
 0.0279473921     1     7     2     2
 0.0013012535     1     7     2     6
 -0.0004852214     1     7     2    10
 0.0018499626     1     7     2    17
 -0.1323763052     1     7     3     1
 0.0303207519     1     7     3     3
 0.0008180915     1     7     3    11
 0.0142665926     1     7     3    14
 0.0191361426     1     7     4     4
 0.0072739779     1     7     4    12
 -0.0103988251     1     7     4    13
 0.0191361426     1     7     5     5
 -0.0103988251     1     7     5    12
 -0.0072739779     1     7     5    13
 -0.2254771341     1     7     6     2
 -0.0007880297     1     7     6     6
 -0.0006391251     1     7     6    10
 0.0082279422     1     7     6    17
 -0.7063521913     1     7     7     1
 0.0271370714     1     7     7     3
 0.0081655529     1     7     7    11
 0.0126987724     1     7     7    14
 0.0071977353     1     7     8     8
 0.0083287581     1     7     8    15
 -0.0073460902     1     7     8    16
 0.0071977353     1     7     9     9
 0.0073460902     1     7     9    15
 0.0083287581     1     7     9    16
 0.0479094314     1     7    10     2
 -0.0003407355     1     7    10     6
 -0.0019444947     1     7    10    10
 0.0002505662     1     7    10    17
 -0.1461529667     1     7    11     1
 0.0108190127     1     7    11     3
 0.0021858661     1     7    11    11
 0.0107364462     1     7    11    14
 0.0038038681     1     7    12     4
 -0.0054379817     1     7    12     5
 0.0070384363     1     7    12    12
 -0.0054379817     1     7    13     4
 -0.0038038681     1     7    13     5
 0.0070384363     1     7    13    13
 0.1573698721     1     7    14     1
 -0.0080723773     1     7    14     3
 -0.0009189744     1     7    14    11
 -0.0014155701     1     7    14    14
 0.0056045908     1     7    15     8
 0.0049433336     1     7    15     9
 0.0113012490     1     7    15    15
 -0.0049433336     1     7    16     8
 0.0056045908     1     7    16     9
 0.0113012490     1     7    16    16
 -0.1554346609     1     7    17     2
 -0.0075341496     1     7    17     6
 0.0050404695     1     7    17    10
 0.0053480342     1     7    17    17
 0.0096865663     1     7    18    18
 0.0096865663     1     7    19    19
 -0.0008509679     1     8     2     4
 0.0003028182     1     8     2     5
 -0.0006359785     1     8     2    12
 0.0004526188     1     8     2    13
 -0.0018678175     1     8     3    15
 0.0016474432     1     8     3    16
 -0.1648826220     1     8     4     2
 -0.0077374556     1     8     4     6
 0.0046356244     1     8     4    10
 0.0046674617     1     8     4    17
 0.0586737242     1     8     5     2
 0.0027533850     1     8     5     6
 -0.0016495938     1     8     5    10
 -0.0016609231     1     8     5    17
 0.0047243821     1     8     6     4
 -0.0016811783     1     8     6     5
 0.0066197851     1     8     6    12
 -0.0047112275     1     8     6    13
 0.0026502448     1     8     7    15
 -0.0023375559     1     8     7    16
 -0.5742966242     1     8     8     1
 0.0108682919     1     8     8     3
 -0.0071977353     1     8     8     7
 -0.0007243332     1     8     8    11
 0.0073754023     1     8     8    14
 0.0033675744     1     8     8    18
 -0.0017469181     1     8     8    19
 0.0017469181     1     8     9    18
 0.0033675744     1     8     9    19
 -0.0012179604     1     8    10     4
 0.0004334130     1     8    10     5
 -0.0018130961     1     8    10    12
 0.0012903604     1     8    10    13
 0.0000598891     1     8    11    15
 -0.0000528230     1     8    11    16
 -0.0597395046     1     8    12     2
 -0.0060719551     1     8    12     6
 0.0038878456     1     8    12    10
 -0.0027194174     1     8    12    17
 0.0425159422     1     8    13     2
 0.0043213430     1     8    13     6
 -0.0027669365     1     8    13    10
 0.0019353792     1     8    13    17
 0.0008057503     1     8    14    15
 -0.0007106840     1     8    14    16
 -0.1930895981     1     8    15     1
 0.0102613866     1     8    15     3
 -0.0056045908     1     8    15     7
 -0.0009540691     1     8    15    11
 0.0095588863     1     8    15    14
 0.0032499499     1     8    15    18
 0.0008099963     1     8    15    19
 0.1703079369     1     8    16     1
 -0.0090506976     1     8    16     3
 0.0049433336     1     8    16     7
 0.0008415034     1     8    16    11
 -0.0084310818     1     8    16    14
 -0.0008099963     1     8    16    18
 0.0032499499     1     8    16    19
 -0.0023623209     1     8    17     4
 0.0008406354     1     8    17     5
 -0.0031537485     1     8    17    12
 0.0022444877     1     8    17    13
 -0.0030550360     1     8    18    15
 0.0007614173     1     8    18    16
 -0.0007614173     1     8    19    15
 -0.0030550360     1     8    19    16
 -0.0003028182     1     9     2     4
 -0.0008509679     1     9     2     5
 0.0004526188     1     9     2    12
 0.0006359785     1     9     2    13
 -0.0016474432     1     9     3    15
 -0.0018678175     1     9     3    16
 -0.0586737242     1     9     4     2
 -0.0027533850     1     9     4     6
 0.0016495938     1     9     4    10
 0.0016609231     1     9     4    17
 -0.1648826220     1     9     5     2
 -0.0077374556     1     9     5     6
 0.0046356244     1     9     5    10
 0.0046674617     1     9     5    17
 0.0016811783     1     9     6     4
 0.0047243821     1     9     6     5
 -0.0047112275     1     9     6    12
 -0.0066197851     1     9     6    13
 0.0023375559     1     9     7    15
 0.0026502448     1     9     7    16
 0.0017469181     1     9     8    18
 0.0033675744     1     9     8    19
 -0.5742966242     1     9     9     1
 0.0108682919     1     9     9     3
 -0.0071977353     1     9     9     7
 -0.0007243332     1     9     9    11
 0.0073754023     1     9     9    14
 -0.0033675744     1     9     9    18
 0.0017469181     1     9     9    19
 -0.0004334130     1     9    10     4
 -0.0012179604     1     9    10     5
 0.0012903604     1     9    10    12
 0.0018130961     1     9    10    13
 0.0000528230     1     9    11    15
 0.0000598891     1     9    11    16
 0.0425159422     1     9    12     2
 0.0043213430     1     9    12     6
 -0.0027669365     1     9    12    10
 0.0019353792     1     9    12    17
 0.0597395046     1     9    13     2
 0.0060719551     1     9    13     6
 -0.0038878456     1     9    13    10
 0.0027194174     1     9    13    17
 0.0007106840     1     9    14    15
 0.0008057503     1     9    14    16
 -0.1703079369     1     9    15     1
 0.0090506976     1     9    15     3
 -0.0049433336     1     9    15     7
 -0.0008415034     1     9    15    11
 0.0084310818     1     9    15    14
 -0.0008099963     1     9    15    18
 0.0032499499     1     9    15    19
 -0.1930895981     1     9    16     1
 0.0102613866     1     9    16     3
 -0.0056045908     1     9    16     7
 -0.0009540691     1     9    16    11
 0.0095588863     1     9    16    14
 -0.0032499499     1     9    16    18
 -0.0008099963     1     9    16    19
 -0.0008406354     1     9    17     4
 -0.0023623209     1     9    17     5
 0.0022444877     1     9    17    12
 0.0031537485     1     9    17    13
 0.0007614173     1     9    18    15
 0.0030550360     1     9    18    16
 -0.0030550360     1     9    19    15
 0.0007614173     1     9    19    16
 0.0052918978     1    10     2     1
 0.0003378993     1    10     2     3
 0.0004852214     1    10     2     7
 0.0002857494     1    10     2    11
 -0.0002319845     1    10     2    14
 -0.0560087023     1    10     3     2
 -0.0007995493     1    10     3     6
 -0.0017003537     1    10     3    17
 -0.0046356244     1    10     4     8
 -0.0016495938     1    10     4     9
 -0.0081742459     1    10     4    15
 0.0032735374     1    10     4    16
 0.0016495938     1    10     5     8
 -0.0046356244     1    10     5     9
 -0.0032735374     1    10     5    15
 -0.0081742459     1    10     5    16
 0.1402860792     1    10     6     1
 -0.0039554022     1    10     6     3
 0.0006391251     1    10     6     7
 -0.0016585767     1    10     6    11
 -0.0010541725     1    10     6    14
 0.0483820474     1    10     7     2
 0.0002792416     1    10     7     6
 -0.0049915536     1    10     7    17
 -0.0059621253     1    10     8     4
 0.0021216311     1    10     8     5
 -0.0056957886     1    10     8    12
 0.0040536294     1    10     8    13
 -0.0021216311     1    10     9     4
 -0.0059621253     1    10     9     5
 0.0040536294     1    10     9    12
 0.0056957886     1    10     9    13
 -0.3740642825     1    10    10     1
 0.0028685214     1    10    10     3
 0.0019444947     1    10    10     7
 0.0005672429     1    10    10    11
 -0.0000702649     1    10    10    14
 0.0669084394     1    10    11     2
 -0.0033470033     1    10    11     6
 -0.0067948714     1    10    11    17
 -0.0038878456     1    10    12     8
 0.0027669365     1    10    12     9
 -0.0014966321     1    10    12    15
 0.0064069806     1    10    12    16
 0.0027669365     1    10    13     8
 0.0038878456     1    10    13     9
 0.0064069806     1    10    13    15
 0.0014966321     1    10    13    16
 -0.0965761326     1    10    14     2
 0.0017991537     1    10    14     6
 0.0053531652     1    10    14    17
 -0.0091466540     1    10    15     4
 -0.0036629573     1    10    15     5
 -0.0020451725     1    10    15    12
 0.0087552446     1    10    15    13
 0.0036629573     1    10    16     4
 -0.0091466540     1    10    16     5
 0.0087552446     1    10    16    12
 0.0020451725     1    10    16    13
 0.0456124071     1    10    17     1
 -0.0067176556     1    10    17     3
 -0.0050404695     1    10    17     7
 -0.0039925593     1    10    17    11
 0.0006091831     1    10    17    14
 0.0159408688     1    11     2     2
 0.0007702569     1    11     2     6
 -0.0002857494     1    11     2    10
 0.0010978015     1    11     2    17
 -0.0982156929     1    11     3     1
 0.0167596817     1    11     3     3
 -0.0008180915     1    11     3     7
 0.0086860964     1    11     3    14
 0.0087602126     1    11     4     4
 0.0031611690     1    11     4    12
 -0.0045191839     1    11     4    13
 0.0087602126     1    11     5     5
 -0.0045191839     1    11     5    12
 -0.0031611690     1    11     5    13
 -0.0212560340     1    11     6     2
 -0.0059820460     1    11     6     6
 0.0016585767     1    11     6    10
 -0.0048331235     1    11     6    17
 -0.1461529667     1    11     7     1
 0.0099138078     1    11     7     3
 -0.0081655529     1    11     7     7
 0.0117163413     1    11     7    14
 0.0007243332     1    11     8     8
 0.0010098068     1    11     8    15
 -0.0008906648     1    11     8    16
 0.0007243332     1    11     9     9
 0.0008906648     1    11     9    15
 0.0010098068     1    11     9    16
 0.0666292597     1    11    10     2
 -0.0016948394     1    11    10     6
 -0.0005672429     1    11    10    10
 -0.0027810592     1    11    10    17
 -0.4564423144     1    11    11     1
 0.0053372920     1    11    11     3
 -0.0021858661     1    11    11     7
 0.0071006223     1    11    11    14
 0.0003498633     1    11    12     4
 -0.0005001620     1    11    12     5
 0.0009680955     1    11    12    12
 -0.0005001620     1    11    13     4
 -0.0003498633     1    11    13     5
 0.0009680955     1    11    13    13
 -0.0049600367     1    11    14     1
 -0.0041536171     1    11    14     3
 0.0009189744     1    11    14     7
 -0.0018631471     1    11    14    14
 0.0009540691     1    11    15     8
 0.0008415034     1    11    15     9
 0.0018119278     1    11    15    15
 -0.0008415034     1    11    16     8
 0.0009540691     1    11    16     9
 0.0018119278     1    11    16    16
 -0.0538046013     1    11    17     2
 -0.0077462874     1    11    17     6
 0.0039925593     1    11    17    10
 -0.0029982837     1    11    17    17
 0.0049536331     1    11    18    18
 0.0049536331     1    11    19    19
 0.0006359785     1    12     2     8
 -0.0004526188     1    12     2     9
 0.0002688890     1    12     2    15
 -0.0011510957     1    12     2    16
 0.0045737939     1    12     3     4
 -0.0065386621     1    12     3     5
 -0.1290484109     1    12     4     1
 0.0121146718     1    12     4     3
 -0.0072739779     1    12     4     7
 -0.0031611690     1    12     4    11
 0.0071611107     1    12     4    14
 0.0078806555     1    12     4    18
 -0.0074182396     1    12     4    19
 0.1844866573     1    12     5     1
 -0.0173190455     1    12     5     3
 0.0103988251     1    12     5     7
 0.0045191839     1    12     5    11
 -0.0102374712     1    12     5    14
 0.0074182396     1    12     5    18
 0.0078806555     1    12     5    19
 -0.0066197851     1    12     6     8
 0.0047112275     1    12     6     9
 -0.0009838153     1    12     6    15
 0.0042116467     1    12     6    16
 -0.0034704471     1    12     7     4
 0.0049613255     1    12     7     5
 -0.0591185900     1    12     8     2
 -0.0126710086     1    12     8     6
 0.0056957886     1    12     8    10
 0.0004378185     1    12     8    17
 0.0420740442     1    12     9     2
 0.0090178161     1    12     9     6
 -0.0040536294     1    12     9    10
 -0.0003115906     1    12     9    17
 0.0018130961     1    12    10     8
 -0.0012903604     1    12    10     9
 0.0005543945     1    12    10    15
 -0.0023733250     1    12    10    16
 -0.0028291136     1    12    11     4
 0.0040444799     1    12    11     5
 -0.5554314377     1    12    12     1
 0.0117256438     1    12    12     3
 -0.0070384363     1    12    12     7
 -0.0009680955     1    12    12    11
 0.0164896529     1    12    12    14
 -0.0003169429     1    12    12    18
 -0.0021736406     1    12    12    19
 -0.0021736406     1    12    13    18
 0.0003169429     1    12    13    19
 -0.0030710001     1    12    14     4
 0.0043902791     1    12    14     5
 -0.0402005617     1    12    15     2
 -0.0030032748     1    12    15     6
 0.0020451725     1    12    15    10
 -0.0003598593     1    12    15    17
 0.1720958777     1    12    16     2
 0.0128568158     1    12    16     6
 -0.0087552446     1    12    16    10
 0.0015405334     1    12    16    17
 0.0031537485     1    12    17     8
 -0.0022444877     1    12    17     9
 -0.0002296469     1    12    17    15
 0.0009831029     1    12    17    16
 0.0059297929     1    12    18     4
 0.0055818485     1    12    18     5
 -0.0055818485     1    12    19     4
 0.0059297929     1    12    19     5
 -0.0004526188     1    13     2     8
 -0.0006359785     1    13     2     9
 -0.0011510957     1    13     2    15
 -0.0002688890     1    13     2    16
 -0.0065386621     1    13     3     4
 -0.0045737939     1    13     3     5
 0.1844866573     1    13     4     1
 -0.0173190455     1    13     4     3
 0.0103988251     1    13     4     7
 0.0045191839     1    13     4    11
 -0.0102374712     1    13     4    14
 -0.0074182396     1    13     4    18
 -0.0078806555     1    13     4    19
 0.1290484109     1    13     5     1
 -0.0121146718     1    13     5     3
 0.0072739779     1    13     5     7
 0.0031611690     1    13     5    11
 -0.0071611107     1    13     5    14