&FCI NORB= 19,NELEC= 14,MS2=0,
 ORBSYM=1,1,1,1,1,1,1,1,1,1,1,1,1,1,1,1,1,1,1
 ISYM=1,
&END
 0.3720383795     1     1     2     2
 -0.0032727757     1     1     2     4
 -0.0076307199     1     1     2    10
 0.0104666646     1     1     2    11
 -0.0018885799     1     1     2    18
 0.6796372648     1     1     3     3
 -0.0000000002     1     1     3     4
 0.0596972337     1     1     3     5
 0.0000000001     1     1     3    10
 -0.0127347402     1     1     3    14
 0.1548614003     1     1     3    15
 0.0000000001     1     1     3    18
 -0.0032727757     1     1     4     2
 -0.0000000002     1     1     4     3
 0.6187930346     1     1     4     4
 0.0000000002     1     1     4     5
 -0.0757414399     1     1     4    10
 -0.1114908841     1     1     4    11
 0.0000000001     1     1     4    14
 -0.0000000001     1     1     4    15
 -0.1257871663     1     1     4    18
 0.0596972337     1     1     5     3
 0.0000000002     1     1     5     4
 0.6423203589     1     1     5     5
 0.0000000001     1     1     5    10
 -0.0000000002     1     1     5    11
 0.2045483281     1     1     5    14
 0.0016976014     1     1     5    15
 0.6028603394     1     1     6     6
 0.0001780511     1     1     6     7
 -0.0000000002     1     1     6     9
 0.1345792563     1     1     6    12
 0.1653933205     1     1     6    13
 0.0000000001     1     1     6    16
 0.0000000001     1     1     6    17
 0.0145169590     1     1     6    19
 0.0001780511     1     1     7     6
 0.6026049904     1     1     7     7
 0.0000000002     1     1     7     8
 0.1653659366     1     1     7    12
 -0.1350218642     1     1     7    13
 -0.0000000001     1     1     7    16
 0.0000000001     1     1     7    17
 0.0074538110     1     1     7    19
 0.0000000002     1     1     8     7
 0.6033124652     1     1     8     8
 0.0000004966     1     1     8     9
 0.0000000001     1     1     8    12
 -0.0000000001     1     1     8    13
 -0.1401354313     1     1     8    16
 0.1810948763     1     1     8    17
 -0.0000000002     1     1     9     6
 0.0000004966     1     1     9     8
 0.6033104797     1     1     9     9
 -0.0000000001     1     1     9    12
 -0.0000000001     1     1     9    13
 -0.1810937122     1     1     9    16
 -0.1401330113     1     1     9    17
 0.0000000001     1     1     9    19
 -0.0076307199     1     1    10     2
 0.0000000001     1     1    10     3
 -0.0757414399     1     1    10     4
 0.0000000001     1     1    10     5
 0.6048028635     1     1    10    10
 -0.2191178865     1     1    10    11
 0.0000000001     1     1    10    15
 0.1254709486     1     1    10    18
 0.0104666646     1     1    11     2
 -0.1114908841     1     1    11     4
 -0.0000000002     1     1    11     5
 -0.2191178865     1     1    11    10
 0.5810622075     1     1    11    11
 -0.0000000002     1     1    11    14
 -0.0121877019     1     1    11    18
 0.1345792563     1     1    12     6
 0.1653659366     1     1    12     7
 0.0000000001     1     1    12     8
 -0.0000000001     1     1    12     9
 0.5840634484     1     1    12    12
 -0.0000059603     1     1    12    13
 0.0000000001     1     1    12    16
 0.0000000002     1     1    12    17
 -0.0275504784     1     1    12    19
 0.1653933205     1     1    13     6
 -0.1350218642     1     1    13     7
 -0.0000000001     1     1    13     8
 -0.0000000001     1     1    13     9
 -0.0000059603     1     1    13    12
 0.5840744575     1     1    13    13
 0.0000000002     1     1    13    16
 -0.0000000001     1     1    13    17
 -0.0120583458     1     1    13    19
 -0.0127347402     1     1    14     3
 0.0000000001     1     1    14     4
 0.2045483281     1     1    14     5
 -0.0000000002     1     1    14    11
 0.4993833485     1     1    14    14
 0.0068176445     1     1    14    15
 0.1548614003     1     1    15     3
 -0.0000000001     1     1    15     4
 0.0016976014     1     1    15     5
 0.0000000001     1     1    15    10
 0.0068176445     1     1    15    14
 0.5318560148     1     1    15    15
 0.0000000001     1     1    15    18
 0.0000000001     1     1    16     6
 -0.0000000001     1     1    16     7
 -0.1401354313     1     1    16     8
 -0.1810937122     1     1    16     9
 0.0000000001     1     1    16    12
 0.0000000002     1     1    16    13
 0.5629470160     1     1    16    16
 -0.0000016593     1     1    16    17
 0.0000000001     1     1    17     6
 0.0000000001     1     1    17     7
 0.1810948763     1     1    17     8
 -0.1401330113     1     1    17     9
 0.0000000002     1     1    17    12
 -0.0000000001     1     1    17    13
 -0.0000016593     1     1    17    16
 0.5629463079     1     1    17    17
 -0.0018885799     1     1    18     2
 0.0000000001     1     1    18     3
 -0.1257871663     1     1    18     4
 0.1254709486     1     1    18    10
 -0.0121877019     1     1    18    11
 0.0000000001     1     1    18    15
 0.5014902551     1     1    18    18
 0.0145169590     1     1    19     6
 0.0074538110     1     1    19     7
 0.0000000001     1     1    19     9
 -0.0275504784     1     1    19    12
 -0.0120583458     1     1    19    13
 0.5741928446     1     1    19    19
 -0.3720383795     1     2     2     1
 -0.0035519656     1     2     2     3
 -0.0096780812     1     2     2     5
 -0.0082882620     1     2     2    14
 -0.0022141402     1     2     2    15
 0.2218507590     1     2     3     4
 -0.1625359587     1     2     3    10
 0.0399826337     1     2     3    11
 -0.1259209036     1     2     3    18
 0.0032727757     1     2     4     1
 0.2219158523     1     2     4     3
 -0.2107450922     1     2     4     5
 -0.1104956118     1     2     4    14
 0.1180942708     1     2     4    15
 -0.2109156714     1     2     5     4
 -0.1872003239     1     2     5    10
 0.2223289760     1     2     5    11
 0.0023981477     1     2     5    18
 0.0630558418     1     2     6     8
 0.2528906119     1     2     6     9
 -0.1572982072     1     2     6    16
 -0.0694129144     1     2     6    17
 -0.2538397934     1     2     7     8
 0.0622460883     1     2     7     9
 0.0696525476     1     2     7    16
 -0.1573482642     1     2     7    17
 0.0630060049     1     2     8     6
 -0.2536356974     1     2     8     7
 -0.1144819081     1     2     8    12
 0.1523290771     1     2     8    13
 0.0209205757     1     2     8    19
 0.2526844327     1     2     9     6
 0.0621944743     1     2     9     7
 0.1523154679     1     2     9    12
 0.1144794229     1     2     9    13
 -0.0885744511     1     2     9    19
 0.0076307199     1     2    10     1
 -0.1623985367     1     2    10     3
 -0.1868129887     1     2    10     5
 -0.0375093967     1     2    10    14
 -0.0715462295     1     2    10    15
 -0.0104666646     1     2    11     1
 0.0397925825     1     2    11     3
 0.2217865358     1     2    11     5
 0.2459370456     1     2    11    14
 -0.0169039983     1     2    11    15
 -0.1146253442     1     2    12     8
 0.1525131188     1     2    12     9
 -0.0703931459     1     2    12    16
 -0.2566282278     1     2    12    17
 0.1525157833     1     2    13     8
 0.1146248575     1     2    13     9
 -0.2566297917     1     2    13    16
 0.0703961651     1     2    13    17
 -0.1106593039     1     2    14     4
 -0.0378448418     1     2    14    10
 0.2464089409     1     2    14    11
 0.0333373462     1     2    14    18
 0.1180481536     1     2    15     4
 -0.0716397908     1     2    15    10
 -0.0167719459     1     2    15    11
 -0.1714798965     1     2    15    18
 -0.1570707810     1     2    16     6
 0.0695554424     1     2    16     7
 -0.0703130610     1     2    16    12
 -0.2563612984     1     2    16    13
 0.0111853353     1     2    16    19
 -0.0693095634     1     2    17     6
 -0.1571221428     1     2    17     7
 -0.2563538963     1     2    17    12
 0.0703273504     1     2    17    13
 0.0138239060     1     2    17    19
 0.0018885799     1     2    18     1
 -0.1258892600     1     2    18     3
 0.0024882811     1     2    18     5
 0.0334115194     1     2    18    14
 -0.1714587645     1     2    18    15
 0.0209184027     1     2    19     8
 -0.0885652506     1     2    19     9
 0.0111786728     1     2    19    16
 0.0138156719     1     2    19    17
 0.0035519656     1     3     2     2
 -0.0000643754     1     3     2     4
 -0.0001402592     1     3     2    10
 0.0001949225     1     3     2    11
 -0.0000331868     1     3     2    18
 -0.6796372648     1     3     3     1
 -0.0129533858     1     3     3     5
 -0.0138388711     1     3     3    14
 -0.0023410687     1     3     3    15
 0.0000000002     1     3     4     1
 -0.2219158523     1     3     4     2
 -0.0048450407     1     3     4     4
 -0.0070748601     1     3     4    10
 0.0099515232     1     3     4    11
 0.0000314936     1     3     4    18
 -0.0596972337     1     3     5     1
 -0.0225374978     1     3     5     5
 -0.0202178507     1     3     5    14
 0.0001581702     1     3     5    15
 -0.0163574165     1     3     6     6
 0.0000548712     1     3     6     7
 -0.0142161408     1     3     6    12
 -0.0173997981     1     3     6    13
 0.0054870350     1     3     6    19
 0.0000548712     1     3     7     6
 -0.0164361091     1     3     7     7
 -0.0174037567     1     3     7    12
 0.0141521578     1     3     7    13
 0.0028173478     1     3     7    19
 -0.0163363124     1     3     8     8
 0.0000066338     1     3     8     9
 0.0118051942     1     3     8    16
 -0.0152715677     1     3     8    17
 0.0000066338     1     3     9     8
 -0.0163628319     1     3     9     9
 0.0152903189     1     3     9    16
 0.0118441770     1     3     9    17
 -0.0000000001     1     3    10     1
 0.1623985367     1     3    10     2
 -0.0091304142     1     3    10     4
 -0.0079827596     1     3    10    10
 0.0150422235     1     3    10    11
 0.0010796981     1     3    10    18
 -0.0397925825     1     3    11     2
 0.0106456179     1     3    11     4
 0.0099503065     1     3    11    10
 -0.0205517406     1     3    11    11
 -0.0014923688     1     3    11    18
 -0.0086816908     1     3    12     6
 -0.0106634077     1     3    12     7
 -0.0177877626     1     3    12    12
 -0.0000153922     1     3    12    13
 0.0039346286     1     3    12    19
 -0.0106647145     1     3    13     6
 0.0087028131     1     3    13     7
 -0.0000153922     1     3    13    12
 -0.0177593320     1     3    13    13
 0.0017221157     1     3    13    19
 0.0127347402     1     3    14     1
 -0.0126178727     1     3    14     5
 -0.0133046085     1     3    14    14
 0.0013119504     1     3    14    15
 -0.1548614003     1     3    15     1
 -0.0033608254     1     3    15     5
 -0.0036072505     1     3    15    14
 0.0005374616     1     3    15    15
 0.0087397749     1     3    16     8
 0.0112985423     1     3    16     9
 -0.0175875880     1     3    16    16
 -0.0000042868     1     3    16    17
 -0.0112962618     1     3    17     8
 0.0087445158     1     3    17     9
 -0.0000042868     1     3    17    16
 -0.0175894174     1     3    17    17
 -0.0000000001     1     3    18     1
 0.1258892600     1     3    18     2
 -0.0015595435     1     3    18     4
 -0.0009364909     1     3    18    10
 0.0025959104     1     3    18    11
 0.0004490694     1     3    18    18
 0.0016724601     1     3    19     6
 0.0008587337     1     3    19     7
 0.0002136018     1     3    19    12
 0.0000934896     1     3    19    13
 -0.0011976512     1     3    19    19
 0.0032727757     1     4     2     1
 0.0000643754     1     4     2     3
 0.0001730528     1     4     2     5
 0.0001602283     1     4     2    14
 0.0000469009     1     4     2    15
 0.0000000002     1     4     3     1
 -0.2218507590     1     4     3     2
 0.0020931597     1     4     3    10
 -0.0006795518     1     4     3    11
 0.0015871468     1     4     3    18
 -0.6187930346     1     4     4     1
 0.0048450407     1     4     4     3
 0.0029787336     1     4     4     5
 0.0055061585     1     4     4    14
 0.0028936756     1     4     4    15
 -0.0000000002     1     4     5     1
 0.2109156714     1     4     5     2
 0.0186392121     1     4     5    10
 -0.0231333143     1     4     5    11
 0.0080743273     1     4     5    18
 -0.0037588631     1     4     6     8
 -0.0151258762     1     4     6     9
 0.0182562598     1     4     6    16
 0.0080355984     1     4     6    17
 0.0151596953     1     4     7     8
 -0.0037300117     1     4     7     9
 -0.0081087261     1     4     7    16
 0.0182715355     1     4     7    17
 -0.0039499924     1     4     8     6
 0.0161613873     1     4     8     7
 0.0137839917     1     4     8    12
 -0.0182435870     1     4     8    13
 -0.0003819031     1     4     8    19
 -0.0163143010     1     4     9     6
 -0.0040804442     1     4     9     7
 -0.0184990762     1     4     9    12
 -0.0138306471     1     4     9    13
 0.0016169181     1     4     9    19
 0.0757414399     1     4    10     1
 0.0091304142     1     4    10     3
 0.0139690385     1     4    10     5
 0.0139760548     1     4    10    14
 0.0068881796     1     4    10    15
 0.1114908841     1     4    11     1
 -0.0106456179     1     4    11     3
 -0.0147103848     1     4    11     5
 -0.0126278316     1     4    11    14
 -0.0084837730     1     4    11    15
 0.0091152515     1     4    12     8
 -0.0121341280     1     4    12     9
 0.0047664082     1     4    12    16
 0.0173614033     1     4    12    17
 -0.0121247502     1     4    13     8
 -0.0091169641     1     4    13     9
 0.0173564689     1     4    13    16
 -0.0047568825     1     4    13    17
 -0.0000000001     1     4    14     1
 0.1106593039     1     4    14     2
 0.0123510296     1     4    14    10
 -0.0118030077     1     4    14    11
 0.0057188870     1     4    14    18
 0.0000000001     1     4    15     1
 -0.1180481536     1     4    15     2
 0.0011847874     1     4    15    10
 -0.0006437075     1     4    15    11
 0.0005126300     1     4    15    18
 0.0127891531     1     4    16     6
 -0.0056580379     1     4    16     7
 0.0047097447     1     4    16    12
 0.0170630799     1     4    16    13
 -0.0011989199     1     4    16    19
 0.0056478418     1     4    17     6
 0.0127912829     1     4    17     7
 0.0170896170     1     4    17    12
 -0.0046585156     1     4    17    13
 -0.0014817398     1     4    17    19
 0.1257871663     1     4    18     1
 0.0015595435     1     4    18     3
 0.0029087935     1     4    18     5
 0.0021672949     1     4    18    14
 0.0010629244     1     4    18    15
 -0.0008608887     1     4    19     8
 0.0036448681     1     4    19     9
 -0.0038441966     1     4    19    16
 -0.0047510255     1     4    19    17
 0.0096780812     1     5     2     2
 -0.0001730528     1     5     2     4
 -0.0003956198     1     5     2    10
 0.0005469402     1     5     2    11
 -0.0000931328     1     5     2    18
 -0.0596972337     1     5     3     1
 0.0129533858     1     5     3     3
 -0.0076257662     1     5     3    14
 0.0034923106     1     5     3    15
 -0.0000000002     1     5     4     1
 0.2107450922     1     5     4     2
 -0.0029787336     1     5     4     4
 0.0046820970     1     5     4    10
 -0.0084768753     1     5     4    11
 0.0051764828     1     5     4    18
 -0.6423203589     1     5     5     1
 0.0225374978     1     5     5     3
 0.0010938167     1     5     5    14
 0.0151735201     1     5     5    15
 0.0099860737     1     5     6     6
 0.0000621916     1     5     6     7
 0.0046189196     1     5     6    12
 0.0057281772     1     5     6    13
 0.0069483898     1     5     6    19
 0.0000621916     1     5     7     6
 0.0098968826     1     5     7     7
 0.0057222749     1     5     7    12
 -0.0047143180     1     5     7    13
 0.0035676882     1     5     7    19
 0.0082581930     1     5     8     8
 -0.0000079646     1     5     8     9
 -0.0060132894     1     5     8    16
 0.0077811417     1     5     8    17
 -0.0000079646     1     5     9     8
 0.0082900326     1     5     9     9
 -0.0077932579     1     5     9    16
 -0.0060384783     1     5     9    17
 -0.0000000001     1     5    10     1
 0.1868129887     1     5    10     2
 -0.0139690385     1     5    10     4
 0.0159438470     1     5    10    10
 -0.0088385290     1     5    10    11
 0.0135051672     1     5    10    18
 0.0000000002     1     5    11     1
 -0.2217865358     1     5    11     2
 0.0147103848     1     5    11     4
 -0.0168615228     1     5    11    10
 0.0046314440     1     5    11    11
 -0.0157205942     1     5    11    18
 0.0035414567     1     5    12     6
 0.0042948826     1     5    12     7
 0.0087482019     1     5    12    12
 0.0000033854     1     5    12    13
 0.0028517029     1     5    12    19
 0.0042895778     1     5    13     6
 -0.0034557175     1     5    13     7
 0.0000033854     1     5    13    12
 0.0087419488     1     5    13    13
 0.0012481387     1     5    13    19
 -0.2045483281     1     5    14     1
 0.0126178727     1     5    14     3
 -0.0029913957     1     5    14    14
 0.0126071698     1     5    14    15
 -0.0016976014     1     5    15     1
 0.0033608254     1     5    15     3
 -0.0016825455     1     5    15    14
 0.0066070412     1     5    15    15
 -0.0036180070     1     5    16     8
 -0.0046785474     1     5    16     9
 0.0070467822     1     5    16    16
 0.0000005496     1     5    16    17
 0.0046769053     1     5    17     8
 -0.0036214208     1     5    17     9
 0.0000005496     1     5    17    16
 0.0070470169     1     5    17    17
 -0.0024882811     1     5    18     2
 -0.0029087935     1     5    18     4
 0.0039004289     1     5    18    10
 -0.0000978135     1     5    18    11
 0.0051630487     1     5    18    18
 0.0003339835     1     5    19     6
 0.0001714856     1     5    19     7
 -0.0067439521     1     5    19    12
 -0.0029517057     1     5    19    13
 0.0064220406     1     5    19    19
 0.0000498704     1     6     2     8
 0.0002089875     1     6     2     9
 -0.0002281625     1     6     2    16
 -0.0001027562     1     6     2    17
 -0.0056035648     1     6     3    12
 -0.0068587161     1     6     3    13
 0.0038069972     1     6     3    19
 0.0001882359     1     6     4     8
 0.0011658041     1     6     4     9
 0.0055539344     1     6     4    16
 0.0024269038     1     6     4    17
 0.0011168300     1     6     5    12
 0.0014109163     1     6     5    13
 0.0066074174     1     6     5    19
 -0.6028603394     1     6     6     1
 0.0163574165     1     6     6     3
 -0.0099860737     1     6     6     5
 -0.0101865175     1     6     6    14
 0.0049648572     1     6     6    15
 -0.0001780511     1     6     7     1
 -0.0000548712     1     6     7     3
 -0.0000621916     1     6     7     5
 -0.0000575144     1     6     7    14
 -0.0000393791     1     6     7    15
 -0.0630060049     1     6     8     2
 0.0039499924     1     6     8     4
 -0.0030083378     1     6     8    10
 0.0006401290     1     6     8    11
 -0.0020333553     1     6     8    18
 0.0000000002     1     6     9     1
 -0.2526844327     1     6     9     2
 0.0163143010     1     6     9     4
 -0.0119800419     1     6     9    10
 0.0023945623     1     6     9    11
 -0.0081466165     1     6     9    18
 -0.0000660227     1     6    10     8
 -0.0001393529     1     6    10     9
 -0.0015335144     1     6    10    16
 -0.0007244131     1     6    10    17
 -0.0000036127     1     6    11     8
 -0.0001025266     1     6    11     9
 0.0012088703     1     6    11    16
 0.0005635997     1     6    11    17
 -0.1345792563     1     6    12     1
 0.0086816908     1     6    12     3
 -0.0035414567     1     6    12     5
 -0.0049516423     1     6    12    14
 0.0085567380     1     6    12    15
 -0.1653933205     1     6    13     1
 0.0106647145     1     6    13     3
 -0.0042895778     1     6    13     5
 -0.0060589810     1     6    13    14
 0.0105286915     1     6    13    15
 0.0005363985     1     6    14    12
 0.0006349635     1     6    14    13
 0.0013788889     1     6    14    19
 0.0036070701     1     6    15    12
 0.0043684565     1     6    15    13
 -0.0008390742     1     6    15    19
 -0.0000000001     1     6    16     1
 0.1570707810     1     6    16     2
 -0.0127891531     1     6    16     4
 0.0087460198     1     6    16    10
 0.0028080084     1     6    16    11
 0.0126992980     1     6    16    18
 -0.0000000001     1     6    17     1
 0.0693095634     1     6    17     2
 -0.0056478418     1     6    17     4
 0.0038377104     1     6    17    10
 0.0012588998     1     6    17    11
 0.0055911537     1     6    17    18
 0.0001729980     1     6    18     8
 0.0007140075     1     6    18     9
 0.0031767810     1     6    18    16
 0.0013945786     1     6    18    17
 -0.0145169590     1     6    19     1
 -0.0016724601     1     6    19     3
 -0.0003339835     1     6    19     5
 -0.0051283190     1     6    19    14
 -0.0039545791     1     6    19    15
 -0.0002057030     1     7     2     8
 0.0000526724     1     7     2     9
 0.0000985381     1     7     2    16
 -0.0002272815     1     7     2    17
 -0.0068602523     1     7     3    12
 0.0055787353     1     7     3    13
 0.0019547233     1     7     3    19
 -0.0009839787     1     7     4     8
 0.0003433524     1     7     4     9
 -0.0024881350     1     7     4    16
 0.0055667249     1     7     4    17
 0.0014070049     1     7     5    12
 -0.0011800512     1     7     5    13
 0.0033926142     1     7     5    19
 -0.0001780511     1     7     6     1
 -0.0000548712     1     7     6     3
 -0.0000621916     1     7     6     5
 -0.0000575144     1     7     6    14
 -0.0000393791     1     7     6    15
 -0.6026049904     1     7     7     1
 0.0164361091     1     7     7     3
 -0.0098968826     1     7     7     5
 -0.0101040342     1     7     7    14
 0.0050213320     1     7     7    15
 -0.0000000002     1     7     8     1
 0.2536356974     1     7     8     2
 -0.0161613873     1     7     8     4
 0.0120635929     1     7     8    10
 -0.0024818280     1     7     8    11
 0.0081809646     1     7     8    18
 -0.0621944743     1     7     9     2
 0.0040804442     1     7     9     4
 -0.0029370600     1     7     9    10
 0.0005656820     1     7     9    11
 -0.0020040528     1     7     9    18
 0.0001967224     1     7    10     8
 -0.0000170804     1     7    10     9
 0.0006216450     1     7    10    16
 -0.0015120471     1     7    10    17
 0.0000630138     1     7    11     8
 -0.0000373213     1     7    11     9
 -0.0004990153     1     7    11    16
 0.0011953793     1     7    11    17
 -0.1653659366     1     7    12     1
 0.0106634077     1     7    12     3
 -0.0042948826     1     7    12     5
 -0.0060605100     1     7    12    14
 0.0105257260     1     7    12    15
 0.1350218642     1     7    13     1
 -0.0087028131     1     7    13     3
 0.0034557175     1     7    13     5
 0.0049269273     1     7    13    14
 -0.0086046699     1     7    13    15
 0.0006371830     1     7    14    12
 -0.0005005253     1     7    14    13
 0.0007079979     1     7    14    19
 0.0043739167     1     7    15    12
 -0.0035188183     1     7    15    13
 -0.0004308272     1     7    15    19
 0.0000000001     1     7    16     1
 -0.0695554424     1     7    16     2
 0.0056580379     1     7    16     4
 -0.0038989664     1     7    16    10
 -0.0012196041     1     7    16    11
 -0.0056387519     1     7    16    18
 -0.0000000001     1     7    17     1
 0.1571221428     1     7    17     2
 -0.0127912829     1     7    17     4
 0.0087588156     1     7    17    10
 0.0027998000     1     7    17    11
 0.0127092408     1     7    17    18
 -0.0007075398     1     7    18     8
 0.0001785156     1     7    18     9
 -0.0014154561     1     7    18    16
 0.0031811422     1     7    18    17
 -0.0074538110     1     7    19     1
 -0.0008587337     1     7    19     3
 -0.0001714856     1     7    19     5
 -0.0026331631     1     7    19    14
 -0.0020305000     1     7    19    15
 -0.0000498704     1     8     2     6
 0.0002057030     1     8     2     7
 0.0001412892     1     8     2    12
 -0.0001825823     1     8     2    13
 0.0000022401     1     8     2    19
 0.0029277783     1     8     3    16
 -0.0038110620     1     8     3    17
 -0.0001882359     1     8     4     6
 0.0009839787     1     8     4     7
 0.0044208224     1     8     4    12
 -0.0057374748     1     8     4    13
 0.0004883156     1     8     4    19
 -0.0023067035     1     8     5    16
 0.0029849940     1     8     5    17
 -0.0630558418     1     8     6     2
 0.0037588631     1     8     6     4
 -0.0029683670     1     8     6    10
 0.0006770851     1     8     6    11
 -0.0022249673     1     8     6    18
 -0.0000000002     1     8     7     1
 0.2538397934     1     8     7     2
 -0.0151596953     1     8     7     4
 0.0119400878     1     8     7    10
 -0.0026522546     1     8     7    11
 0.0089472305     1     8     7    18
 -0.6033124652     1     8     8     1
 0.0163363124     1     8     8     3
 -0.0082581930     1     8     8     5
 -0.0072042218     1     8     8    14
 0.0084049285     1     8     8    15
 -0.0000004966     1     8     9     1
 -0.0000066338     1     8     9     3
 0.0000079646     1     8     9     5
 0.0000047143     1     8     9    14
 0.0000024620     1     8     9    15
 0.0000660227     1     8    10     6
 -0.0001967224     1     8    10     7
 -0.0016970256     1     8    10    12
 0.0022405468     1     8    10    13
 0.0011863038     1     8    10    19
 0.0000036127     1     8    11     6
 -0.0000630138     1     8    11     7
 0.0005285633     1     8    11    12
 -0.0006941434     1     8    11    13
 -0.0009572022     1     8    11    19
 -0.0000000001     1     8    12     1
 0.1146253442     1     8    12     2
 -0.0091152515     1     8    12     4
 0.0061003497     1     8    12    10
 0.0012088628     1     8    12    11
 0.0081997749     1     8    12    18
 0.0000000001     1     8    13     1
 -0.1525157833     1     8    13     2
 0.0121247502     1     8    13     4
 -0.0081160807     1     8    13    10
 -0.0016065919     1     8    13    11
 -0.0109080943     1     8    13    18
 -0.0000306258     1     8    14    16
 0.0000367271     1     8    14    17
 -0.0009553263     1     8    15    16
 0.0012374574     1     8    15    17
 0.1401354313     1     8    16     1
 -0.0087397749     1     8    16     3
 0.0036180070     1     8    16     5
 0.0054942772     1     8    16    14
 -0.0072312859     1     8    16    15
 -0.1810948763     1     8    17     1
 0.0112962618     1     8    17     3
 -0.0046769053     1     8    17     5
 -0.0071051738     1     8    17    14
 0.0093455998     1     8    17    15
 -0.0001729980     1     8    18     6
 0.0007075398     1     8    18     7
 0.0018068102     1     8    18    12
 -0.0023992054     1     8    18    13
 0.0001788370     1     8    18    19
 -0.0209184027     1     8    19     2
 0.0008608887     1     8    19     4
 -0.0006487094     1     8    19    10
 0.0009548664     1     8    19    11
 -0.0005790634     1     8    19    18
 -0.0002089875     1     9     2     6
 -0.0000526724     1     9     2     7
 -0.0001968750     1     9     2    12
 -0.0001438992     1     9     2    13
 -0.0000094843     1     9     2    19
 0.0038436935     1     9     3    16
 0.0029956176     1     9     3    17
 -0.0011658041     1     9     4     6
 -0.0003433524     1     9     4     7
 -0.0061196320     1     9     4    12
 -0.0044906090     1     9     4    13
 -0.0020674519     1     9     4    19
 -0.0029898086     1     9     5    16
 -0.0023167128     1     9     5    17
 0.0000000002     1     9     6     1
 -0.2528906119     1     9     6     2
 0.0151258762     1     9     6     4
 -0.0118876715     1     9     6    10
 0.0025821101     1     9     6    11
 -0.0089058399     1     9     6    18
 -0.0622460883     1     9     7     2
 0.0037300117     1     9     7     4
 -0.0029236502     1     9     7    10
 0.0006172442     1     9     7    11
 -0.0021896566     1     9     7    18
 -0.0000004966     1     9     8     1
 -0.0000066338     1     9     8     3
 0.0000079646     1     9     8     5
 0.0000047143     1     9     8    14
 0.0000024620     1     9     8    15
 -0.6033104797     1     9     9     1
 0.0163628319     1     9     9     3
 -0.0082900326     1     9     9     5
 -0.0072230680     1     9     9    14
 0.0083950863     1     9     9    15
 0.0001393529     1     9    10     6
 0.0000170804     1     9    10     7
 0.0022865979     1     9    10    12
 0.0017054350     1     9    10    13
 -0.0050226248     1     9    10    19
 0.0001025266     1     9    11     6
 0.0000373213     1     9    11     7
 -0.0007182811     1     9    11    12
 -0.0005329710     1     9    11    13
 0.0040526448     1     9    11    19
 0.0000000001     1     9    12     1
 -0.1525131188     1     9    12     2
 0.0121341280     1     9    12     4
 -0.0081180378     1     9    12    10
 -0.0016115076     1     9    12    11
 -0.0109136894     1     9    12    18
 0.0000000001     1     9    13     1
 -0.1146248575     1     9    13     2
 0.0091169641     1     9    13     4
 -0.0061007071     1     9    13    10
 -0.0012097604     1     9    13    11
 -0.0082007966     1     9    13    18
 -0.0000333471     1     9    14    16
 -0.0000235990     1     9    14    17
 -0.0012408928     1     9    15    16
 -0.0009624683     1     9    15    17
 0.1810937122     1     9    16     1
 -0.0112985423     1     9    16     3
 0.0046785474     1     9    16     5
 0.0071110614     1     9    16    14
 -0.0093463930     1     9    16    15