&FCI NORB=  9,NELEC=  6,MS2=0,
 ORBSYM=1,1,1,1,1,1,1,1,1
 ISYM=1,
&END
 0.2686849557     1     1     2     2
 -0.0000000123     1     1     2     3
 -0.0000000123     1     1     3     2
 0.2652362985     1     1     3     3
 0.2576752003     1     1     4     4
 -0.0000000135     1     1     4     5
 -0.0000000135     1     1     5     4
 0.2614650004     1     1     5     5
 0.1892685966     1     1     6     6
 -0.0000000617     1     1     6     9
 0.1848337661     1     1     7     7
 0.0000000397     1     1     7     8
 0.0000000397     1     1     8     7
 0.1751001596     1     1     8     8
 -0.0000000617     1     1     9     6
 0.1749987480     1     1     9     9
 -0.2686849557     1     2     2     1
 -0.0010099454     1     2     2     6
 0.0000000359     1     2     2     9
 0.0000000123     1     2     3     1
 -0.0000000035     1     2     3     6
 -0.0003803575     1     2     3     9
 0.0000000036     1     2     4     7
 0.0022397215     1     2     4     8
 -0.0043418611     1     2     5     7
 -0.0000000051     1     2     5     8
 0.0000000004     1     2     7     4
 -0.0002476103     1     2     7     5
 -0.0000738515     1     2     8     4
 -0.0000000009     1     2     8     5
 0.0009599402     1     2     9     3
 0.0000000123     1     3     2     1
 -0.0000000035     1     3     2     6
 -0.0014987252     1     3     2     9
 -0.2652362985     1     3     3     1
 0.0010103934     1     3     3     6
 0.0000000456     1     3     3     9
 -0.0008185168     1     3     4     7
 -0.0000000161     1     3     4     8
 0.0000000075     1     3     5     7
 0.0012687077     1     3     5     8
 -0.0002193731     1     3     7     4
 -0.0000000003     1     3     7     5
 -0.0000000009     1     3     8     4
 0.0000986985     1     3     8     5
 -0.0009599402     1     3     9     2
 0.0000000014     1     4     2     7
 0.0019702963     1     4     2     8
 -0.0002121410     1     4     3     7
 -0.0000000103     1     4     3     8
 -0.2576752003     1     4     4     1
 0.0003129711     1     4     4     6
 0.0000000371     1     4     4     9
 0.0000000135     1     4     5     1
 -0.0000000010     1     4     5     6
 0.0005957539     1     4     5     9
 -0.0000000004     1     4     7     2
 0.0002193731     1     4     7     3
 0.0000738515     1     4     8     2
 0.0000000009     1     4     8     3
 0.0017005491     1     4     9     5
 -0.0028131205     1     5     2     7
 -0.0000000021     1     5     2     8
 0.0000000068     1     5     3     7
 0.0006357540     1     5     3     8
 0.0000000135     1     5     4     1
 -0.0000000011     1     5     4     6
 -0.0009692601     1     5     4     9
 -0.2614650004     1     5     5     1
 -0.0003143805     1     5     5     6
 0.0000000352     1     5     5     9
 0.0002476103     1     5     7     2
 0.0000000003     1     5     7     3
 0.0000000009     1     5     8     2
 -0.0000986985     1     5     8     3
 -0.0017005491     1     5     9     4
 0.0010099454     1     6     2     2
 0.0000000035     1     6     2     3
 0.0000000035     1     6     3     2
 -0.0010103934     1     6     3     3
 -0.0003129711     1     6     4     4
 0.0000000011     1     6     4     5
 0.0000000010     1     6     5     4
 0.0003143805     1     6     5     5
 -0.1892685966     1     6     6     1
 0.0000000240     1     6     6     9
 0.0008997848     1     6     7     7
 -0.0000000025     1     6     7     8
 -0.0000000023     1     6     8     7
 -0.0009138065     1     6     8     8
 0.0000000617     1     6     9     1
 -0.0012310607     1     6     9     9
 -0.0000000014     1     7     2     4
 0.0028131205     1     7     2     5
 0.0002121410     1     7     3     4
 -0.0000000068     1     7     3     5
 -0.0000000036     1     7     4     2
 0.0008185168     1     7     4     3
 0.0043418611     1     7     5     2
 -0.0000000075     1     7     5     3
 -0.0000000001     1     7     6     8
 -0.1848337661     1     7     7     1
 -0.0008997848     1     7     7     6
 0.0000000201     1     7     7     9
 -0.0000000397     1     7     8     1
 0.0000000023     1     7     8     6
 -0.0019110728     1     7     8     9
 -0.0030340594     1     7     9     8
 -0.0019702963     1     8     2     4
 0.0000000021     1     8     2     5
 0.0000000103     1     8     3     4
 -0.0006357540     1     8     3     5
 -0.0022397215     1     8     4     2
 0.0000000161     1     8     4     3
 0.0000000051     1     8     5     2
 -0.0012687077     1     8     5     3
 0.0000000001     1     8     6     7
 -0.0000000397     1     8     7     1
 0.0000000025     1     8     7     6
 0.0011231770     1     8     7     9
 -0.1751001596     1     8     8     1
 0.0009138065     1     8     8     6
 0.0000000150     1     8     8     9
 0.0030340594     1     8     9     7
 -0.0000000359     1     9     2     2
 0.0014987252     1     9     2     3
 0.0003803575     1     9     3     2
 -0.0000000456     1     9     3     3
 -0.0000000371     1     9     4     4
 0.0009692601     1     9     4     5
 -0.0005957539     1     9     5     4
 -0.0000000352     1     9     5     5
 0.0000000617     1     9     6     1
 -0.0000000240     1     9     6     6
 -0.0000000201     1     9     7     7
 -0.0011231770     1     9     7     8
 0.0019110728     1     9     8     7
 -0.0000000150     1     9     8     8
 -0.1749987480     1     9     9     1
 0.0012310607     1     9     9     6
 -0.2686849557     2     1     1     2
 0.0000000123     2     1     1     3
 0.0009599402     2     1     3     9
 0.0000000004     2     1     4     7
 -0.0000738515     2     1     4     8
 -0.0002476103     2     1     5     7
 -0.0000000009     2     1     5     8
 -0.0010099454     2     1     6     2
 -0.0000000035     2     1     6     3
 0.0000000036     2     1     7     4
 -0.0043418611     2     1     7     5
 0.0022397215     2     1     8     4
 -0.0000000051     2     1     8     5
 0.0000000359     2     1     9     2
 -0.0003803575     2     1     9     3
 0.2686849557     2     2     1     1
 0.0010099454     2     2     1     6
 -0.0000000359     2     2     1     9
 0.2505467336     2     2     3     3
 0.2299618355     2     2     4     4
 -0.0000000001     2     2     4     5
 -0.0000000001     2     2     5     4
 0.2390049052     2     2     5     5
 0.0010099454     2     2     6     1
 0.1877385067     2     2     6     6
 -0.0000000133     2     2     6     9
 0.1844940302     2     2     7     7
 0.0000000081     2     2     7     8
 0.0000000081     2     2     8     7
 0.1693078648     2     2     8     8
 -0.0000000359     2     2     9     1
 -0.0000000133     2     2     9     6
 0.1681420710     2     2     9     9
 -0.0000000123     2     3     1     1
 0.0000000035     2     3     1     6
 0.0014987252     2     3     1     9
 -0.2505467336     2     3     3     2
 0.0279363952     2     3     4     5
 -0.0188717848     2     3     5     4
 0.0000000003     2     3     5     5
 0.0000000035     2     3     6     1
 0.0088874970     2     3     6     9
 0.0000000081     2     3     7     7
 -0.0077546724     2     3     7     8
 -0.0074338454     2     3     8     7
 -0.0000000080     2     3     8     8
 0.0003803575     2     3     9     1
 0.0088863136     2     3     9     6
 0.0000000148     2     3     9     9
 -0.0000000014     2     4     1     7
 -0.0019702963     2     4     1     8
 0.0455975413     2     4     3     5
 -0.2299618355     2     4     4     2
 0.0000000001     2     4     5     2
 0.0188717848     2     4     5     3
 0.0000000140     2     4     6     7
 -0.0251627320     2     4     6     8
 -0.0000000036     2     4     7     1
 0.0000000139     2     4     7     6
 0.0164152792     2     4     7     9
 -0.0022397215     2     4     8     1
 -0.0249383320     2     4     8     6
 -0.0000000150     2     4     8     9
 0.0164657846     2     4     9     7
 -0.0000000150     2     4     9     8
 0.0028131205     2     5     1     7
 0.0000000021     2     5     1     8
 -0.0455975413     2     5     3     4
 0.0000000001     2     5     4     2
 -0.0279363952     2     5     4     3
 -0.2390049052     2     5     5     2
 -0.0000000003     2     5     5     3
 -0.0251454637     2     5     6     7
 -0.0000000141     2     5     6     8
 0.0043418611     2     5     7     1
 -0.0249285179     2     5     7     6
 0.0000000275     2     5     7     9
 0.0000000051     2     5     8     1
 -0.0000000140     2     5     8     6
 0.0103263784     2     5     8     9
 0.0000000276     2     5     9     7
 0.0103534982     2     5     9     8
 -0.0010099454     2     6     1     2
 -0.0000000035     2     6     1     3
 0.0000036480     2     6     3     9
 0.0000000001     2     6     4     7
 -0.0001092668     2     6     4     8
 -0.0001040812     2     6     5     7
 -0.0000000001     2     6     5     8
 -0.1877385067     2     6     6     2
 -0.0000000139     2     6     7     4
 0.0249285179     2     6     7     5
 0.0249383320     2     6     8     4
 0.0000000140     2     6     8     5
 0.0000000133     2     6     9     2
 -0.0088863136     2     6     9     3
 0.0000000014     2     7     1     4
 -0.0028131205     2     7     1     5
 -0.0002840059     2     7     3     8
 -0.0000000004     2     7     4     1
 -0.0000000001     2     7     4     6
 -0.0000322424     2     7     4     9
 0.0002476103     2     7     5     1
 0.0001040812     2     7     5     6
 -0.0000000140     2     7     6     4
 0.0251454637     2     7     6     5
 -0.1844940302     2     7     7     2
 -0.0000000081     2     7     7     3
 -0.0000000081     2     7     8     2
 0.0074338454     2     7     8     3
 -0.0164657846     2     7     9     4
 -0.0000000276     2     7     9     5
 0.0019702963     2     8     1     4
 -0.0000000021     2     8     1     5
 0.0002840059     2     8     3     7
 0.0000738515     2     8     4     1
 0.0001092668     2     8     4     6
 0.0000000009     2     8     5     1
 0.0000000001     2     8     5     6
 -0.0000054002     2     8     5     9
 0.0251627320     2     8     6     4
 0.0000000141     2     8     6     5
 -0.0000000081     2     8     7     2
 0.0077546724     2     8     7     3
 -0.1693078648     2     8     8     2
 0.0000000080     2     8     8     3
 0.0000000150     2     8     9     4
 -0.0103534982     2     8     9     5
 0.0000000359     2     9     1     2
 -0.0014987252     2     9     1     3
 -0.0009599402     2     9     3     1
 -0.0000036480     2     9     3     6
 0.0000322424     2     9     4     7
 0.0000054002     2     9     5     8
 0.0000000133     2     9     6     2
 -0.0088874970     2     9     6     3
 -0.0164152792     2     9     7     4
 -0.0000000275     2     9     7     5
 0.0000000150     2     9     8     4
 -0.0103263784     2     9     8     5
 -0.1681420710     2     9     9     2
 -0.0000000148     2     9     9     3
 0.0000000123     3     1     1     2
 -0.2652362985     3     1     1     3
 -0.0009599402     3     1     2     9
 -0.0002193731     3     1     4     7
 -0.0000000009     3     1     4     8
 -0.0000000003     3     1     5     7
 0.0000986985     3     1     5     8
 -0.0000000035     3     1     6     2
 0.0010103934     3     1     6     3
 -0.0008185168     3     1     7     4
 0.0000000075     3     1     7     5
 -0.0000000161     3     1     8     4
 0.0012687077     3     1     8     5
 -0.0014987252     3     1     9     2
 0.0000000456     3     1     9     3
 -0.0000000123     3     2     1     1
 0.0000000035     3     2     1     6
 0.0003803575     3     2     1     9
 -0.2505467336     3     2     2     3
 -0.0188717848     3     2     4     5
 0.0279363952     3     2     5     4
 0.0000000003     3     2     5     5
 0.0000000035     3     2     6     1
 0.0088863136     3     2     6     9
 0.0000000081     3     2     7     7
 -0.0074338454     3     2     7     8
 -0.0077546724     3     2     8     7
 -0.0000000080     3     2     8     8
 0.0014987252     3     2     9     1
 0.0088874970     3     2     9     6
 0.0000000148     3     2     9     9
 0.2652362985     3     3     1     1
 -0.0010103934     3     3     1     6
 -0.0000000456     3     3     1     9
 0.2505467336     3     3     2     2
 0.2390632921     3     3     4     4
 0.0000000002     3     3     4     5
 0.0000000002     3     3     5     4
 0.2299771525     3     3     5     5
 -0.0010103934     3     3     6     1
 0.1877384880     3     3     6     6
 0.0000000132     3     3     6     9
 0.1693169247     3     3     7     7
 -0.0000000081     3     3     7     8
 -0.0000000081     3     3     8     7
 0.1845078073     3     3     8     8
 -0.0000000456     3     3     9     1
 0.0000000132     3     3     9     6
 0.1780039110     3     3     9     9
 0.0002121410     3     4     1     7
 0.0000000103     3     4     1     8
 -0.0455975413     3     4     2     5
 -0.2390632921     3     4     4     3
 -0.0279363952     3     4     5     2
 -0.0000000002     3     4     5     3
 0.0251789224     3     4     6     7
 0.0000000139     3     4     6     8
 0.0008185168     3     4     7     1
 0.0249615210     3     4     7     6
 -0.0000000040     3     4     7     9
 0.0000000161     3     4     8     1
 0.0000000138     3     4     8     6
 -0.0217665535     3     4     8     9
 -0.0000000041     3     4     9     7
 -0.0217942050     3     4     9     8
 -0.0000000068     3     5     1     7
 -0.0006357540     3     5     1     8
 0.0455975413     3     5     2     4
 0.0188717848     3     5     4     2
 -0.0000000002     3     5     4     3
 -0.0000000003     3     5     5     2
 -0.2299771525     3     5     5     3
 0.0000000140     3     5     6     7
 -0.0251693254     3     5     6     8
 -0.0000000075     3     5     7     1
 0.0000000139     3     5     7     6
 0.0156667842     3     5     7     9
 -0.0012687077     3     5     8     1
 -0.0249488651     3     5     8     6
 -0.0000000166     3     5     8     9
 0.0156708580     3     5     9     7
 -0.0000000168     3     5     9     8
 -0.0000000035     3     6     1     2
 0.0010103934     3     6     1     3
 -0.0000036480     3     6     2     9
 0.0001071479     3     6     4     7
 0.0000000001     3     6     4     8
 0.0000000001     3     6     5     7
 -0.0001092970     3     6     5     8
 -0.1877384880     3     6     6     3
 -0.0249615210     3     6     7     4
 -0.0000000139     3     6     7     5
 -0.0000000138     3     6     8     4
 0.0249488651     3     6     8     5
 -0.0088874970     3     6     9     2
 -0.0000000132     3     6     9     3
 -0.0002121410     3     7     1     4
 0.0000000068     3     7     1     5
 0.0002840059     3     7     2     8
 0.0002193731     3     7     4     1
 -0.0001071479     3     7     4     6
 0.0000000003     3     7     5     1
 -0.0000000001     3     7     5     6
 0.0000307875     3     7     5     9
 -0.0251789224     3     7     6     4
 -0.0000000140     3     7     6     5
 -0.0000000081     3     7     7     2
 -0.1693169247     3     7     7     3
 0.0077546724     3     7     8     2
 0.0000000081     3     7     8     3
 0.0000000041     3     7     9     4
 -0.0156708580     3     7     9     5
 -0.0000000103     3     8     1     4
 0.0006357540     3     8     1     5
 -0.0002840059     3     8     2     7
 0.0000000009     3     8     4     1
 -0.0000000001     3     8     4     6
 -0.0000033535     3     8     4     9
 -0.0000986985     3     8     5     1
 0.0001092970     3     8     5     6
 0.0000000001     3     8     5     9
 -0.0000000139     3     8     6     4
 0.0251693254     3     8     6     5
 0.0074338454     3     8     7     2
 0.0000000081     3     8     7     3
 0.0000000080     3     8     8     2
 -0.1845078073     3     8     8     3
 0.0217942050     3     8     9     4
 0.0000000168     3     8     9     5
 -0.0003803575     3     9     1     2
 0.0000000456     3     9     1     3
 0.0009599402     3     9     2     1
 0.0000036480     3     9     2     6
 0.0000033535     3     9     4     8
 -0.0000307875     3     9     5     7
 -0.0000000001     3     9     5     8
 -0.0088863136     3     9     6     2
 -0.0000000132     3     9     6     3
 0.0000000040     3     9     7     4
 -0.0156667842     3     9     7     5
 0.0217665535     3     9     8     4
 0.0000000166     3     9     8     5
 -0.0000000148     3     9     9     2
 -0.1780039110     3     9     9     3
 -0.2576752003     4     1     1     4
 0.0000000135     4     1     1     5
 -0.0000000004     4     1     2     7
 0.0000738515     4     1     2     8
 0.0002193731     4     1     3     7
 0.0000000009     4     1     3     8
 0.0017005491     4     1     5     9
 0.0003129711     4     1     6     4
 -0.0000000010     4     1     6     5
 0.0000000014     4     1     7     2
 -0.0002121410     4     1     7     3
 0.0019702963     4     1     8     2
 -0.0000000103     4     1     8     3
 0.0000000371     4     1     9     4
 0.0005957539     4     1     9     5
 -0.0000000036     4     2     1     7
 -0.0022397215     4     2     1     8
 -0.2299618355     4     2     2     4
 0.0000000001     4     2     2     5
 0.0188717848     4     2     3     5
 0.0455975413     4     2     5     3
 0.0000000139     4     2     6     7
 -0.0249383320     4     2     6     8
 -0.0000000014     4     2     7     1
 0.0000000140     4     2     7     6
 0.0164657846     4     2     7     9
 -0.0019702963     4     2     8     1
 -0.0251627320     4     2     8     6
 -0.0000000150     4     2     8     9
 0.0164152792     4     2     9     7
 -0.0000000150     4     2     9     8
 0.0008185168     4     3     1     7
 0.0000000161     4     3     1     8
 -0.0279363952     4     3     2     5
 -0.2390632921     4     3     3     4
 -0.0000000002     4     3     3     5
 -0.0455975413     4     3     5     2
 0.0249615210     4     3     6     7
 0.0000000138     4     3     6     8
 0.0002121410     4     3     7     1
 0.0251789224     4     3     7     6
 -0.0000000041     4     3     7     9
 0.0000000103     4     3     8     1
 0.0000000139     4     3     8     6
 -0.0217942050     4     3     8     9
 -0.0000000040     4     3     9     7
 -0.0217665535     4     3     9     8
 0.2576752003     4     4     1     1
 -0.0003129711     4     4     1     6
 -0.0000000371     4     4     1     9
 0.2299618355     4     4     2     2
 0.2390632921     4     4     3     3
 0.2441609159     4     4     5     5
 -0.0003129711     4     4     6     1
 0.1840705989     4     4     6     6
 0.0000000086     4     4     6     9
 0.1696090674     4     4     7     7
 -0.0000000050     4     4     7     8
 -0.0000000050     4     4     8     7
 0.1792663290     4     4     8     8
 -0.0000000371     4     4     9     1
 0.0000000086     4     4     9     6
 0.1745402164     4     4     9     9
 -0.0000000135     4     5     1     1
 0.0000000011     4     5     1     6
 0.0009692601     4     5     1     9
 -0.0000000001     4     5     2     2
 0.0279363952     4     5     2     3
 -0.0188717848     4     5     3     2
 0.0000000002     4     5     3     3
 -0.2441609159     4     5     5     4
 0.0000000010     4     5     6     1
 0.0058934322     4     5     6     9
 0.0000000050     4     5     7     7
 -0.0049143859     4     5     7     8
 -0.0047483216     4     5     8     7
 -0.0000000050     4     5     8     8
 -0.0005957539     4     5     9     1
 0.0058934322     4     5     9     6
 0.0000000106     4     5     9     9
 0.0003129711     4     6     1     4
 -0.0000000011     4     6     1     5
 -0.0000000001     4     6     2     7
 0.0001092668     4     6     2     8
 -0.0001071479     4     6     3     7
 -0.0000000001     4     6     3     8
 -0.0000000002     4     6     5     9
 -0.1840705989     4     6     6     4
 -0.0000000140     4     6     7     2
 -0.0251789224     4     6     7     3
 0.0251627320     4     6     8     2
 -0.0000000139     4     6     8     3
 -0.0000000086     4     6     9     4
 -0.0058934322     4     6     9     5
 0.0000000036     4     7     1     2
 -0.0008185168     4     7     1     3
 0.0000000004     4     7     2     1
 0.0000000001     4     7     2     6
 0.0000322424     4     7     2     9
 -0.0002193731     4     7     3     1
 0.0001071479     4     7     3     6
 -0.0002130844     4     7     5     8
 -0.0000000139     4     7     6     2
 -0.0249615210     4     7     6     3
 -0.1696090674     4     7     7     4
 -0.0000000050     4     7     7     5
 0.0000000050     4     7     8     4
 0.0047483216     4     7     8     5
 -0.0164152792     4     7     9     2
 0.0000000040     4     7     9     3
 0.0022397215     4     8     1     2
 -0.0000000161     4     8     1     3
 -0.0000738515     4     8     2     1
 -0.0001092668     4     8     2     6
 -0.0000000009     4     8     3     1
 0.0000000001     4     8     3     6
 0.0000033535     4     8     3     9
 0.0002130844     4     8     5     7
 0.0249383320     4     8     6     2
 -0.0000000138     4     8     6     3
 0.0000000050     4     8     7     4
 0.0049143859     4     8     7     5
 -0.1792663290     4     8     8     4
 0.0000000050     4     8     8     5
 0.0000000150     4     8     9     2
 0.0217665535     4     8     9     3
 0.0000000371     4     9     1     4
 -0.0009692601     4     9     1     5
 -0.0000322424     4     9     2     7
 -0.0000033535     4     9     3     8
 -0.0017005491     4     9     5     1
 0.0000000002     4     9     5     6
 -0.0000000086     4     9     6     4
 -0.0058934322     4     9     6     5
 -0.0164657846     4     9     7     2
 0.0000000041     4     9     7     3
 0.0000000150     4     9     8     2
 0.0217942050     4     9     8     3
 -0.1745402164     4     9     9     4
 -0.0000000106     4     9     9     5
 0.0000000135     5     1     1     4
 -0.2614650004     5     1     1     5
 0.0002476103     5     1     2     7
 0.0000000009     5     1     2     8
 0.0000000003     5     1     3     7
 -0.0000986985     5     1     3     8
 -0.0017005491     5     1     4     9
 -0.0000000011     5     1     6     4
 -0.0003143805     5     1     6     5
 -0.0028131205     5     1     7     2
 0.0000000068     5     1     7     3
 -0.0000000021     5     1     8     2
 0.0006357540     5     1     8     3
 -0.0009692601     5     1     9     4
 0.0000000352     5     1     9     5
 0.0043418611     5     2     1     7
 0.0000000051     5     2     1     8
 0.0000000001     5     2     2     4
 -0.2390049052     5     2     2     5
 -0.0279363952     5     2     3     4
 -0.0000000003     5     2     3     5
 -0.0455975413     5     2     4     3
 -0.0249285179     5     2     6     7
 -0.0000000140     5     2     6     8
 0.0028131205     5     2     7     1
 -0.0251454637     5     2     7     6
 0.0000000276     5     2     7     9
 0.0000000021     5     2     8     1
 -0.0000000141     5     2     8     6
 0.0103534982     5     2     8     9
 0.0000000275     5     2     9     7
 0.0103263784     5     2     9     8
 -0.0000000075     5     3     1     7
 -0.0012687077     5     3     1     8
 0.0188717848     5     3     2     4
 -0.0000000003     5     3     2     5
 -0.0000000002     5     3     3     4
 -0.2299771525     5     3     3     5
 0.0455975413     5     3     4     2
 0.0000000139     5     3     6     7
 -0.0249488651     5     3     6     8
 -0.0000000068     5     3     7     1
 0.0000000140     5     3     7     6
 0.0156708580     5     3     7     9
 -0.0006357540     5     3     8     1
 -0.0251693254     5     3     8     6
 -0.0000000168     5     3     8     9
 0.0156667842     5     3     9     7
 -0.0000000166     5     3     9     8
 -0.0000000135     5     4     1     1
 0.0000000010     5     4     1     6
 -0.0005957539     5     4     1     9
 -0.0000000001     5     4     2     2
 -0.0188717848     5     4     2     3
 0.0279363952     5     4     3     2
 0.0000000002     5     4     3     3
 -0.2441609159     5     4     4     5
 0.0000000011     5     4     6     1
 0.0058934322     5     4     6     9
 0.0000000050     5     4     7     7
 -0.0047483216     5     4     7     8
 -0.0049143859     5     4     8     7
 -0.0000000050     5     4     8     8
 0.0009692601     5     4     9     1
 0.0058934322     5     4     9     6
 0.0000000106     5     4     9     9
 0.2614650004     5     5     1     1
 0.0003143805     5     5     1     6
 -0.0000000352     5     5     1     9
 0.2390049052     5     5     2     2
 0.0000000003     5     5     2     3
 0.0000000003     5     5     3     2
 0.2299771525     5     5     3     3
 0.2441609159     5     5     4     4
 0.0003143805     5     5     6     1
 0.1840706075     5     5     6     6
 -0.0000000086     5     5     6     9
 0.1792781970     5     5     7     7
 0.0000000051     5     5     7     8
 0.0000000051     5     5     8     7
 0.1696100254     5     5     8     8
 -0.0000000352     5     5     9     1
 -0.0000000086     5     5     9     6
 0.1675862787     5     5     9     9
 -0.0000000010     5     6     1     4
 -0.0003143805     5     6     1     5
 0.0001040812     5     6     2     7
 0.0000000001     5     6     2     8
 -0.0000000001     5     6     3     7
 0.0001092970     5     6     3     8
 0.0000000002     5     6     4     9
 -0.1840706075     5     6     6     5
 0.0251454637     5     6     7     2
 -0.0000000140     5     6     7     3
 0.0000000141     5     6     8     2
 0.0251693254     5     6     8     3
 -0.0058934322     5     6     9     4
 0.0000000086     5     6     9     5
 -0.0043418611     5     7     1     2
 0.0000000075     5     7     1     3
 -0.0002476103     5     7     2     1
 -0.0001040812     5     7     2     6
 -0.0000000003     5     7     3     1
 0.0000000001     5     7     3     6
 -0.0000307875     5     7     3     9
 0.0002130844     5     7     4     8
 0.0249285179     5     7     6     2
 -0.0000000139     5     7     6     3
 -0.0000000050     5     7     7     4
 -0.1792781970     5     7     7     5
 0.0049143859     5     7     8     4
 -0.0000000051     5     7     8     5
 -0.0000000275     5     7     9     2
 -0.0156667842     5     7     9     3
 -0.0000000051     5     8     1     2
 0.0012687077     5     8     1     3
 -0.0000000009     5     8     2     1
 -0.0000000001     5     8     2     6
 0.0000054002     5     8     2     9
 0.0000986985     5     8     3     1
 -0.0001092970     5     8     3     6
 -0.0000000001     5     8     3     9
 -0.0002130844     5     8     4     7
 0.0000000140     5     8     6     2
 0.0249488651     5     8     6     3
 0.0047483216     5     8     7     4
 -0.0000000051     5     8     7     5
 0.0000000050     5     8     8     4
 -0.1696100254     5     8     8     5
 -0.0103263784     5     8     9     2
 0.0000000166     5     8     9     3
 0.0005957539     5     9     1     4
 0.0000000352     5     9     1     5
 -0.0000054002     5     9     2     8
 0.0000307875     5     9     3     7
 0.0000000001     5     9     3     8
 0.0017005491     5     9     4     1
 -0.0000000002     5     9     4     6
 -0.0058934322     5     9     6     4
 0.0000000086     5     9     6     5
 -0.0000000276     5     9     7     2
 -0.0156708580     5     9     7     3
 -0.0103534982     5     9     8     2
 0.0000000168     5     9     8     3
 -0.0000000106     5     9     9     4
 -0.1675862787     5     9     9     5
 -0.1892685966     6     1     1     6
 0.0000000617     6     1     1     9
 0.0010099454     6     1     2     2
 0.0000000035     6     1     2     3
 0.0000000035     6     1     3     2
 -0.0010103934     6     1     3     3
 -0.0003129711     6     1     4     4
 0.0000000010     6     1     4     5
 0.0000000011     6     1     5     4
 0.0003143805     6     1     5     5
 0.0008997848     6     1     7     7
 -0.0000000023     6     1     7     8
 -0.0000000025     6     1     8     7
 -0.0009138065     6     1     8     8
 0.0000000240     6     1     9     6
 -0.0012310607     6     1     9     9
 -0.0010099454     6     2     2     1
 -0.1877385067     6     2     2     6
 0.0000000133     6     2     2     9
 -0.0000000035     6     2     3     1
 -0.0088863136     6     2     3     9
 -0.0000000139     6     2     4     7
 0.0249383320     6     2     4     8
 0.0249285179     6     2     5     7
 0.0000000140     6     2     5     8
 0.0000000001     6     2     7     4
 -0.0001040812     6     2     7     5
 -0.0001092668     6     2     8     4
 -0.0000000001     6     2     8     5
 0.0000036480     6     2     9     3
 -0.0000000035     6     3     2     1
 -0.0088874970     6     3     2     9
 0.0010103934     6     3     3     1
 -0.1877384880     6     3     3     6
 -0.0000000132     6     3     3     9
 -0.0249615210     6     3     4     7
 -0.0000000138     6     3     4     8
 -0.0000000139     6     3     5     7
 0.0249488651     6     3     5     8
 0.0001071479     6     3     7     4
 0.0000000001     6     3     7     5
 0.0000000001     6     3     8     4
 -0.0001092970     6     3     8     5
 -0.0000036480     6     3     9     2
 -0.0000000140     6     4     2     7
 0.0251627320     6     4     2     8
 -0.0251789224     6     4     3     7
 -0.0000000139     6     4     3     8
 0.0003129711     6     4     4     1
 -0.1840705989     6     4     4     6
 -0.0000000086     6     4     4     9
 -0.0000000011     6     4     5     1
 -0.0058934322     6     4     5     9
 -0.0000000001     6     4     7     2
 -0.0001071479     6     4     7     3
 0.0001092668     6     4     8     2
 -0.0000000001     6     4     8     3
 -0.0000000002     6     4     9     5
 0.0251454637     6     5     2     7
 0.0000000141     6     5     2     8
 -0.0000000140     6     5     3     7
 0.0251693254     6     5     3     8
 -0.0000000010     6     5     4     1
 -0.0058934322     6     5     4     9
 -0.0003143805     6     5     5     1