&FCI NORB=  9,NELEC=  8,MS2=0,
 ORBSYM=1,1,1,1,1,1,1,1,1
 ISYM=1,
&END
 0.2578299490     1     1     2     2
 0.0000000201     1     1     2     7
 0.2652363250     1     1     3     3
 -0.0000000077     1     1     3     4
 -0.0000000077     1     1     4     3
 0.2686849634     1     1     4     4
 0.2614638505     1     1     5     5
 0.0000000086     1     1     5     6
 0.0000000086     1     1     6     5
 0.2576720062     1     1     6     6
 0.0000000201     1     1     7     2
 0.1892685848     1     1     7     7
 0.1750975000     1     1     8     8
 0.0000000268     1     1     8     9
 0.0000000268     1     1     9     8
 0.1848325360     1     1     9     9
 -0.2578299490     1     2     2     1
 0.0000000077     1     2     3     3
 -0.0020837828     1     2     3     4
 -0.0013648583     1     2     4     3
 -0.0000000077     1     2     4     4
 -0.0000000086     1     2     5     5
 0.0010241864     1     2     5     6
 0.0027676432     1     2     6     5
 0.0000000086     1     2     6     6
 -0.0000000201     1     2     7     1
 0.0000000268     1     2     8     8
 0.0051833067     1     2     8     9
 0.0045517302     1     2     9     8
 -0.0000000268     1     2     9     9
 -0.0000716588     1     3     2     4
 -0.2652363250     1     3     3     1
 -0.0000000077     1     3     3     2
 0.0000000021     1     3     3     7
 0.0000000077     1     3     4     1
 0.0013648583     1     3     4     2
 0.0010107922     1     3     4     7
 0.0012760834     1     3     5     8
 0.0000000043     1     3     5     9
 0.0000000102     1     3     6     8
 0.0008216639     1     3     6     9
 0.0000000006     1     3     7     4
 0.0001048569     1     3     8     5
 0.0000000006     1     3     8     6
 -0.0000000003     1     3     9     5
 0.0002176965     1     3     9     6
 0.0000716588     1     4     2     3
 0.0000000077     1     4     3     1
 0.0020837828     1     4     3     2
 0.0010107916     1     4     3     7
 -0.2686849634     1     4     4     1
 0.0000000077     1     4     4     2
 -0.0000000021     1     4     4     7
 -0.0000000039     1     4     5     8
 -0.0043419855     1     4     5     9
 -0.0022442305     1     4     6     8
 -0.0000000019     1     4     6     9
 -0.0000000006     1     4     7     3
 -0.0000000006     1     4     8     5
 0.0000731328     1     4     8     6
 -0.0002494219     1     4     9     5
 -0.0000000003     1     4     9     6
 -0.0007831524     1     5     2     6
 0.0006345016     1     5     3     8
 0.0000000040     1     5     3     9
 -0.0000000018     1     5     4     8
 -0.0028165355     1     5     4     9
 -0.2614638505     1     5     5     1
 0.0000000086     1     5     5     2
 -0.0000000006     1     5     5     7
 -0.0000000086     1     5     6     1
 -0.0027676432     1     5     6     2
 -0.0003141223     1     5     6     7
 -0.0000000015     1     5     7     6
 -0.0001048569     1     5     8     3
 0.0000000006     1     5     8     4
 0.0000000003     1     5     9     3
 0.0002494219     1     5     9     4
 0.0007831524     1     6     2     5
 0.0000000064     1     6     3     8
 0.0002074612     1     6     3     9
 -0.0019745674     1     6     4     8
 -0.0000000006     1     6     4     9
 -0.0000000086     1     6     5     1
 -0.0010241864     1     6     5     2
 -0.0003141208     1     6     5     7
 -0.2576720062     1     6     6     1
 -0.0000000086     1     6     6     2
 0.0000000006     1     6     6     7
 0.0000000015     1     6     7     5
 -0.0000000006     1     6     8     3
 -0.0000731328     1     6     8     4
 -0.0002176965     1     6     9     3
 0.0000000003     1     6     9     4
 -0.0000000201     1     7     2     1
 -0.0000000021     1     7     3     3
 -0.0010107916     1     7     3     4
 -0.0010107922     1     7     4     3
 0.0000000021     1     7     4     4
 0.0000000006     1     7     5     5
 0.0003141208     1     7     5     6
 0.0003141223     1     7     6     5
 -0.0000000006     1     7     6     6
 -0.1892685848     1     7     7     1
 -0.0000000009     1     7     8     8
 0.0009054501     1     7     8     9
 0.0009054485     1     7     9     8
 0.0000000009     1     7     9     9
 0.0006945201     1     8     2     9
 -0.0006345016     1     8     3     5
 -0.0000000064     1     8     3     6
 0.0000000018     1     8     4     5
 0.0019745674     1     8     4     6
 -0.0012760834     1     8     5     3
 0.0000000039     1     8     5     4
 -0.0000000102     1     8     6     3
 0.0022442305     1     8     6     4
 0.0000000016     1     8     7     9
 -0.1750975000     1     8     8     1
 -0.0000000268     1     8     8     2
 0.0000000009     1     8     8     7
 -0.0000000268     1     8     9     1
 -0.0045517302     1     8     9     2
 -0.0009054485     1     8     9     7
 -0.0006945201     1     9     2     8
 -0.0000000040     1     9     3     5
 -0.0002074612     1     9     3     6
 0.0028165355     1     9     4     5
 0.0000000006     1     9     4     6
 -0.0000000043     1     9     5     3
 0.0043419855     1     9     5     4
 -0.0008216639     1     9     6     3
 0.0000000019     1     9     6     4
 -0.0000000016     1     9     7     8
 -0.0000000268     1     9     8     1
 -0.0051833067     1     9     8     2
 -0.0009054501     1     9     8     7
 -0.1848325360     1     9     9     1
 0.0000000268     1     9     9     2
 -0.0000000009     1     9     9     7
 -0.2578299490     2     1     1     2
 -0.0000000201     2     1     1     7
 0.0000000077     2     1     3     3
 -0.0013648583     2     1     3     4
 -0.0020837828     2     1     4     3
 -0.0000000077     2     1     4     4
 -0.0000000086     2     1     5     5
 0.0027676432     2     1     5     6
 0.0010241864     2     1     6     5
 0.0000000086     2     1     6     6
 0.0000000268     2     1     8     8
 0.0045517302     2     1     8     9
 0.0051833067     2     1     9     8
 -0.0000000268     2     1     9     9
 0.2578299490     2     2     1     1
 0.2686849557     2     2     3     3
 0.0000000077     2     2     3     4
 0.0000000077     2     2     4     3
 0.2652362985     2     2     4     4
 0.2576720004     2     2     5     5
 -0.0000000086     2     2     5     6
 -0.0000000086     2     2     6     5
 0.2614638295     2     2     6     6
 0.1892685966     2     2     7     7
 0.1848325556     2     2     8     8
 -0.0000000268     2     2     8     9
 -0.0000000268     2     2     9     8
 0.1750974887     2     2     9     9
 0.0000716588     2     3     1     4
 -0.0000000077     2     3     3     1
 -0.2686849557     2     3     3     2
 0.0010107710     2     3     3     7
 0.0020837828     2     3     4     1
 -0.0000000077     2     3     4     2
 -0.0000000021     2     3     4     7
 -0.0000000019     2     3     5     8
 0.0022442367     2     3     5     9
 0.0043419814     2     3     6     8
 -0.0000000039     2     3     6     9
 -0.0000000003     2     3     8     5
 0.0002494236     2     3     8     6
 -0.0000731322     2     3     9     5
 -0.0000000006     2     3     9     6
 -0.0000716588     2     4     1     3
 0.0013648583     2     4     3     1
 -0.0000000077     2     4     3     2
 -0.0000000021     2     4     3     7
 0.0000000077     2     4     4     1
 -0.2652362985     2     4     4     2
 -0.0010108124     2     4     4     7
 -0.0008216656     2     4     5     8
 0.0000000102     2     4     5     9
 0.0000000043     2     4     6     8
 -0.0012760882     2     4     6     9
 -0.0002176956     2     4     8     5
 -0.0000000003     2     4     8     6
 0.0000000006     2     4     9     5
 -0.0001048571     2     4     9     6
 0.0007831524     2     5     1     6
 -0.0000000006     2     5     3     8
 0.0019745725     2     5     3     9
 -0.0002074636     2     5     4     8
 0.0000000064     2     5     4     9
 0.0000000086     2     5     5     1
 -0.2576720004     2     5     5     2
 -0.0003141402     2     5     5     7
 -0.0010241864     2     5     6     1
 0.0000000086     2     5     6     2
 0.0000000006     2     5     6     7
 0.0000000003     2     5     8     3
 0.0002176956     2     5     8     4
 0.0000731322     2     5     9     3
 -0.0000000006     2     5     9     4
 -0.0007831524     2     6     1     5
 0.0028165293     2     6     3     8
 -0.0000000018     2     6     3     9
 0.0000000040     2     6     4     8
 -0.0006345062     2     6     4     9
 -0.0027676432     2     6     5     1
 0.0000000086     2     6     5     2
 0.0000000006     2     6     5     7
 -0.0000000086     2     6     6     1
 -0.2614638295     2     6     6     2
 0.0003141037     2     6     6     7
 -0.0002494236     2     6     8     3
 0.0000000003     2     6     8     4
 0.0000000006     2     6     9     3
 0.0001048571     2     6     9     4
 0.0000000201     2     7     1     1
 -0.0010107710     2     7     3     3
 0.0000000021     2     7     3     4
 0.0000000021     2     7     4     3
 0.0010108124     2     7     4     4
 0.0003141402     2     7     5     5
 -0.0000000006     2     7     5     6
 -0.0000000006     2     7     6     5
 -0.0003141037     2     7     6     6
 -0.1892685966     2     7     7     2
 -0.0009054395     2     7     8     8
 -0.0000000009     2     7     8     9
 -0.0000000009     2     7     9     8
 0.0009054616     2     7     9     9
 -0.0006945201     2     8     1     9
 0.0000000006     2     8     3     5
 -0.0028165293     2     8     3     6
 0.0002074636     2     8     4     5
 -0.0000000040     2     8     4     6
 0.0000000019     2     8     5     3
 0.0008216656     2     8     5     4
 -0.0043419814     2     8     6     3
 -0.0000000043     2     8     6     4
 -0.0000000268     2     8     8     1
 -0.1848325556     2     8     8     2
 0.0009054395     2     8     8     7
 -0.0051833067     2     8     9     1
 0.0000000268     2     8     9     2
 0.0000000009     2     8     9     7
 0.0006945201     2     9     1     8
 -0.0019745725     2     9     3     5
 0.0000000018     2     9     3     6
 -0.0000000064     2     9     4     5
 0.0006345062     2     9     4     6
 -0.0022442367     2     9     5     3
 -0.0000000102     2     9     5     4
 0.0000000039     2     9     6     3
 0.0012760882     2     9     6     4
 -0.0045517302     2     9     8     1
 0.0000000268     2     9     8     2
 0.0000000009     2     9     8     7
 0.0000000268     2     9     9     1
 -0.1750974887     2     9     9     2
 -0.0009054616     2     9     9     7
 -0.2652363250     3     1     1     3
 0.0000000077     3     1     1     4
 -0.0000000077     3     1     2     3
 0.0013648583     3     1     2     4
 -0.0000716588     3     1     4     2
 0.0000000006     3     1     4     7
 0.0001048569     3     1     5     8
 -0.0000000003     3     1     5     9
 0.0000000006     3     1     6     8
 0.0002176965     3     1     6     9
 0.0000000021     3     1     7     3
 0.0010107922     3     1     7     4
 0.0012760834     3     1     8     5
 0.0000000102     3     1     8     6
 0.0000000043     3     1     9     5
 0.0008216639     3     1     9     6
 -0.0000000077     3     2     1     3
 0.0020837828     3     2     1     4
 -0.2686849557     3     2     2     3
 -0.0000000077     3     2     2     4
 0.0000716588     3     2     4     1
 -0.0000000003     3     2     5     8
 -0.0000731322     3     2     5     9
 0.0002494236     3     2     6     8
 -0.0000000006     3     2     6     9
 0.0010107710     3     2     7     3
 -0.0000000021     3     2     7     4
 -0.0000000019     3     2     8     5
 0.0043419814     3     2     8     6
 0.0022442367     3     2     9     5
 -0.0000000039     3     2     9     6
 0.2652363250     3     3     1     1
 0.0000000077     3     3     1     2
 -0.0000000021     3     3     1     7
 0.0000000077     3     3     2     1
 0.2686849557     3     3     2     2
 -0.0010107710     3     3     2     7
 0.2505467336     3     3     4     4
 0.2299582166     3     3     5     5
 -0.0000000005     3     3     5     6
 -0.0000000005     3     3     6     5
 0.2390058168     3     3     6     6
 -0.0000000021     3     3     7     1
 -0.0010107710     3     3     7     2
 0.1877393316     3     3     7     7
 0.1844929676     3     3     8     8
 -0.0000000079     3     3     8     9
 -0.0000000079     3     3     9     8
 0.1693096829     3     3     9     9
 -0.0000000077     3     4     1     1
 -0.0020837828     3     4     1     2
 -0.0010107916     3     4     1     7
 -0.0013648583     3     4     2     1
 0.0000000077     3     4     2     2
 0.0000000021     3     4     2     7
 -0.2505467336     3     4     4     3
 0.0000000005     3     4     5     5
 -0.0279290357     3     4     5     6
 0.0188814269     3     4     6     5
 -0.0000000005     3     4     6     6
 -0.0010107922     3     4     7     1
 0.0000000021     3     4     7     2
 -0.0000000079     3     4     8     8
 -0.0077541715     3     4     8     9
 -0.0074290987     3     4     9     8
 0.0000000079     3     4     9     9
 -0.0006345016     3     5     1     8
 -0.0000000040     3     5     1     9
 0.0000000006     3     5     2     8
 -0.0019745725     3     5     2     9
 -0.0455877493     3     5     4     6
 -0.2299582166     3     5     5     3
 -0.0000000005     3     5     5     4
 0.0000000005     3     5     6     3
 -0.0188814269     3     5     6     4
 0.0000000177     3     5     7     8
 0.0251560382     3     5     7     9
 -0.0012760834     3     5     8     1
 0.0000000019     3     5     8     2
 0.0000000175     3     5     8     7
 -0.0000000043     3     5     9     1
 -0.0022442367     3     5     9     2
 0.0249369885     3     5     9     7
 -0.0000000064     3     6     1     8
 -0.0002074612     3     6     1     9
 -0.0028165293     3     6     2     8
 0.0000000018     3     6     2     9
 0.0455877493     3     6     4     5
 0.0000000005     3     6     5     3
 0.0279290357     3     6     5     4
 -0.2390058168     3     6     6     3
 0.0000000005     3     6     6     4
 -0.0251560617     3     6     7     8
 0.0000000177     3     6     7     9
 -0.0000000102     3     6     8     1
 -0.0043419814     3     6     8     2
 -0.0249370116     3     6     8     7
 -0.0008216639     3     6     9     1
 0.0000000039     3     6     9     2
 0.0000000175     3     6     9     7
 0.0000000021     3     7     1     3
 0.0010107916     3     7     1     4
 0.0010107710     3     7     2     3
 -0.0000000021     3     7     2     4
 -0.0000000006     3     7     4     1
 0.0000000001     3     7     5     8
 0.0001052605     3     7     5     9
 -0.0001052609     3     7     6     8
 0.0000000001     3     7     6     9
 -0.1877393316     3     7     7     3
 -0.0000000175     3     7     8     5
 0.0249370116     3     7     8     6
 -0.0249369885     3     7     9     5
 -0.0000000175     3     7     9     6
 0.0006345016     3     8     1     5
 0.0000000064     3     8     1     6
 -0.0000000006     3     8     2     5
 0.0028165293     3     8     2     6
 -0.0002836081     3     8     4     9
 -0.0001048569     3     8     5     1
 0.0000000003     3     8     5     2
 -0.0000000001     3     8     5     7
 -0.0000000006     3     8     6     1
 -0.0002494236     3     8     6     2
 0.0001052609     3     8     6     7
 -0.0000000177     3     8     7     5
 0.0251560617     3     8     7     6
 -0.1844929676     3     8     8     3
 0.0000000079     3     8     8     4
 0.0000000079     3     8     9     3
 0.0074290987     3     8     9     4
 0.0000000040     3     9     1     5
 0.0002074612     3     9     1     6
 0.0019745725     3     9     2     5
 -0.0000000018     3     9     2     6
 0.0002836081     3     9     4     8
 0.0000000003     3     9     5     1
 0.0000731322     3     9     5     2
 -0.0001052605     3     9     5     7
 -0.0002176965     3     9     6     1
 0.0000000006     3     9     6     2
 -0.0000000001     3     9     6     7
 -0.0251560382     3     9     7     5
 -0.0000000177     3     9     7     6
 0.0000000079     3     9     8     3
 0.0077541715     3     9     8     4
 -0.1693096829     3     9     9     3
 -0.0000000079     3     9     9     4
 0.0000000077     4     1     1     3
 -0.2686849634     4     1     1     4
 0.0020837828     4     1     2     3
 0.0000000077     4     1     2     4
 0.0000716588     4     1     3     2
 -0.0000000006     4     1     3     7
 -0.0000000006     4     1     5     8
 -0.0002494219     4     1     5     9
 0.0000731328     4     1     6     8
 -0.0000000003     4     1     6     9
 0.0010107916     4     1     7     3
 -0.0000000021     4     1     7     4
 -0.0000000039     4     1     8     5
 -0.0022442305     4     1     8     6
 -0.0043419855     4     1     9     5
 -0.0000000019     4     1     9     6
 0.0013648583     4     2     1     3
 0.0000000077     4     2     1     4
 -0.0000000077     4     2     2     3
 -0.2652362985     4     2     2     4
 -0.0000716588     4     2     3     1
 -0.0002176956     4     2     5     8
 0.0000000006     4     2     5     9
 -0.0000000003     4     2     6     8
 -0.0001048571     4     2     6     9
 -0.0000000021     4     2     7     3
 -0.0010108124     4     2     7     4
 -0.0008216656     4     2     8     5
 0.0000000043     4     2     8     6
 0.0000000102     4     2     9     5
 -0.0012760882     4     2     9     6
 -0.0000000077     4     3     1     1
 -0.0013648583     4     3     1     2
 -0.0010107922     4     3     1     7
 -0.0020837828     4     3     2     1
 0.0000000077     4     3     2     2
 0.0000000021     4     3     2     7
 -0.2505467336     4     3     3     4
 0.0000000005     4     3     5     5
 0.0188814269     4     3     5     6
 -0.0279290357     4     3     6     5
 -0.0000000005     4     3     6     6
 -0.0010107916     4     3     7     1
 0.0000000021     4     3     7     2
 -0.0000000079     4     3     8     8
 -0.0074290987     4     3     8     9
 -0.0077541715     4     3     9     8
 0.0000000079     4     3     9     9
 0.2686849634     4     4     1     1
 -0.0000000077     4     4     1     2
 0.0000000021     4     4     1     7
 -0.0000000077     4     4     2     1
 0.2652362985     4     4     2     2
 0.0010108124     4     4     2     7
 0.2505467336     4     4     3     3
 0.2390058129     4     4     5     5
 0.0000000005     4     4     5     6
 0.0000000005     4     4     6     5
 0.2299582075     4     4     6     6
 0.0000000021     4     4     7     1
 0.0010108124     4     4     7     2
 0.1877393129     4     4     7     7
 0.1693096792     4     4     8     8
 0.0000000079     4     4     8     9
 0.0000000079     4     4     9     8
 0.1844929474     4     4     9     9
 0.0000000018     4     5     1     8
 0.0028165355     4     5     1     9
 0.0002074636     4     5     2     8
 -0.0000000064     4     5     2     9
 0.0455877493     4     5     3     6
 -0.0000000005     4     5     5     3
 -0.2390058129     4     5     5     4
 0.0279290357     4     5     6     3
 -0.0000000005     4     5     6     4
 -0.0251560551     4     5     7     8
 0.0000000177     4     5     7     9
 0.0000000039     4     5     8     1
 0.0008216656     4     5     8     2
 -0.0249370055     4     5     8     7
 0.0043419855     4     5     9     1
 -0.0000000102     4     5     9     2
 0.0000000175     4     5     9     7
 0.0019745674     4     6     1     8
 0.0000000006     4     6     1     9
 -0.0000000040     4     6     2     8
 0.0006345062     4     6     2     9
 -0.0455877493     4     6     3     5
 -0.0188814269     4     6     5     3
 -0.0000000005     4     6     5     4
 0.0000000005     4     6     6     3
 -0.2299582075     4     6     6     4
 -0.0000000177     4     6     7     8
 -0.0251560347     4     6     7     9
 0.0022442305     4     6     8     1
 -0.0000000043     4     6     8     2
 -0.0000000175     4     6     8     7
 0.0000000019     4     6     9     1
 0.0012760882     4     6     9     2
 -0.0249369852     4     6     9     7
 0.0010107922     4     7     1     3
 -0.0000000021     4     7     1     4
 -0.0000000021     4     7     2     3
 -0.0010108124     4     7     2     4
 0.0000000006     4     7     3     1
 -0.0001052606     4     7     5     8
 0.0000000001     4     7     5     9
 -0.0000000001     4     7     6     8
 -0.0001052603     4     7     6     9
 -0.1877393129     4     7     7     4
 0.0249370055     4     7     8     5
 0.0000000175     4     7     8     6
 -0.0000000175     4     7     9     5
 0.0249369852     4     7     9     6
 -0.0000000018     4     8     1     5
 -0.0019745674     4     8     1     6
 -0.0002074636     4     8     2     5
 0.0000000040     4     8     2     6
 0.0002836081     4     8     3     9
 0.0000000006     4     8     5     1
 0.0002176956     4     8     5     2
 0.0001052606     4     8     5     7
 -0.0000731328     4     8     6     1
 0.0000000003     4     8     6     2
 0.0000000001     4     8     6     7
 0.0251560551     4     8     7     5
 0.0000000177     4     8     7     6
 0.0000000079     4     8     8     3
 -0.1693096792     4     8     8     4
 0.0077541715     4     8     9     3
 -0.0000000079     4     8     9     4
 -0.0028165355     4     9     1     5
 -0.0000000006     4     9     1     6
 0.0000000064     4     9     2     5
 -0.0006345062     4     9     2     6
 -0.0002836081     4     9     3     8
 0.0002494219     4     9     5     1
 -0.0000000006     4     9     5     2
 -0.0000000001     4     9     5     7
 0.0000000003     4     9     6     1
 0.0001048571     4     9     6     2
 0.0001052603     4     9     6     7
 -0.0000000177     4     9     7     5
 0.0251560347     4     9     7     6
 0.0074290987     4     9     8     3
 -0.0000000079     4     9     8     4
 -0.0000000079     4     9     9     3
 -0.1844929474     4     9     9     4
 -0.2614638505     5     1     1     5
 -0.0000000086     5     1     1     6
 0.0000000086     5     1     2     5
 -0.0027676432     5     1     2     6
 -0.0001048569     5     1     3     8
 0.0000000003     5     1     3     9
 0.0000000006     5     1     4     8
 0.0002494219     5     1     4     9
 -0.0007831524     5     1     6     2
 -0.0000000015     5     1     6     7
 -0.0000000006     5     1     7     5
 -0.0003141223     5     1     7     6
 0.0006345016     5     1     8     3
 -0.0000000018     5     1     8     4
 0.0000000040     5     1     9     3
 -0.0028165355     5     1     9     4
 0.0000000086     5     2     1     5
 -0.0010241864     5     2     1     6
 -0.2576720004     5     2     2     5
 0.0000000086     5     2     2     6
 0.0000000003     5     2     3     8
 0.0000731322     5     2     3     9
 0.0002176956     5     2     4     8
 -0.0000000006     5     2     4     9
 0.0007831524     5     2     6     1
 -0.0003141402     5     2     7     5
 0.0000000006     5     2     7     6
 -0.0000000006     5     2     8     3
 -0.0002074636     5     2     8     4
 0.0019745725     5     2     9     3
 0.0000000064     5     2     9     4
 -0.0012760834     5     3     1     8
 -0.0000000043     5     3     1     9
 0.0000000019     5     3     2     8
 -0.0022442367     5     3     2     9
 -0.2299582166     5     3     3     5
 0.0000000005     5     3     3     6
 -0.0000000005     5     3     4     5
 -0.0188814269     5     3     4     6
 -0.0455877493     5     3     6     4
 0.0000000175     5     3     7     8
 0.0249369885     5     3     7     9
 -0.0006345016     5     3     8     1
 0.0000000006     5     3     8     2
 0.0000000177     5     3     8     7
 -0.0000000040     5     3     9     1
 -0.0019745725     5     3     9     2
 0.0251560382     5     3     9     7
 0.0000000039     5     4     1     8
 0.0043419855     5     4     1     9
 0.0008216656     5     4     2     8
 -0.0000000102     5     4     2     9
 -0.0000000005     5     4     3     5
 0.0279290357     5     4     3     6
 -0.2390058129     5     4     4     5
 -0.0000000005     5     4     4     6
 0.0455877493     5     4     6     3
 -0.0249370055     5     4     7     8
 0.0000000175     5     4     7     9
 0.0000000018     5     4     8     1
 0.0002074636     5     4     8     2
 -0.0251560551     5     4     8     7
 0.0028165355     5     4     9     1
 -0.0000000064     5     4     9     2
 0.0000000177     5     4     9     7
 0.2614638505     5     5     1     1
 -0.0000000086     5     5     1     2
 0.0000000006     5     5     1     7
 -0.0000000086     5     5     2     1
 0.2576720004     5     5     2     2
 0.0003141402     5     5     2     7
 0.2299582166     5     5     3     3
 0.0000000005     5     5     3     4
 0.0000000005     5     5     4     3
 0.2390058129     5     5     4     4
 0.2441618283     5     5     6     6
 0.0000000006     5     5     7     1
 0.0003141402     5     5     7     2
 0.1840705989     5     5     7     7
 0.1696101994     5     5     8     8
 0.0000000045     5     5     8     9
 0.0000000045     5     5     9     8
 0.1792854512     5     5     9     9
 0.0000000086     5     6     1     1
 0.0010241864     5     6     1     2
 0.0003141208     5     6     1     7
 0.0027676432     5     6     2     1
 -0.0000000086     5     6     2     2
 -0.0000000006     5     6     2     7
 -0.0000000005     5     6     3     3
 -0.0279290357     5     6     3     4
 0.0188814269     5     6     4     3
 0.0000000005     5     6     4     4
 -0.2441618283     5     6     6     5
 0.0003141223     5     6     7     1
 -0.0000000006     5     6     7     2
 0.0000000045     5     6     8     8
 0.0049149610     5     6     8     9
 0.0047602893     5     6     9     8
 -0.0000000045     5     6     9     9
 -0.0000000006     5     7     1     5
 -0.0003141208     5     7     1     6
 -0.0003141402     5     7     2     5
 0.0000000006     5     7     2     6
 -0.0000000001     5     7     3     8
 -0.0001052605     5     7     3     9
 0.0001052606     5     7     4     8
 -0.0000000001     5     7     4     9
 0.0000000015     5     7     6     1
 -0.1840705989     5     7     7     5
 -0.0000000177     5     7     8     3
 0.0251560551     5     7     8     4
 -0.0251560382     5     7     9     3
 -0.0000000177     5     7     9     4
 0.0012760834     5     8     1     3
 -0.0000000039     5     8     1     4
 -0.0000000019     5     8     2     3
 -0.0008216656     5     8     2     4
 0.0001048569     5     8     3     1
 -0.0000000003     5     8     3     2
 0.0000000001     5     8     3     7
 -0.0000000006     5     8     4     1
 -0.0002176956     5     8     4     2
 -0.0001052606     5     8     4     7
 0.0002125258     5     8     6     9
 -0.0000000175     5     8     7     3
 0.0249370055     5     8     7     4
 -0.1696101994     5     8     8     5
 -0.0000000045     5     8     8     6
 -0.0000000045     5     8     9     5
 -0.0047602893     5     8     9     6
 0.0000000043     5     9     1     3
 -0.0043419855     5     9     1     4
 0.0022442367     5     9     2     3
 0.0000000102     5     9     2     4
 -0.0000000003     5     9     3     1
 -0.0000731322     5     9     3     2
 0.0001052605     5     9     3     7
 -0.0002494219     5     9     4     1
 0.0000000006     5     9     4     2
 0.0000000001     5     9     4     7
 -0.0002125258     5     9     6     8
 -0.0249369885     5     9     7     3
 -0.0000000175     5     9     7     4
 -0.0000000045     5     9     8     5
 -0.0049149610     5     9     8     6
 -0.1792854512     5     9     9     5
 0.0000000045     5     9     9     6
 -0.0000000086     6     1     1     5
 -0.2576720062     6     1     1     6
 -0.0010241864     6     1     2     5
 -0.0000000086     6     1     2     6
 -0.0000000006     6     1     3     8
 -0.0002176965     6     1     3     9
 -0.0000731328     6     1     4     8
 0.0000000003     6     1     4     9
 0.0007831524     6     1     5     2
 0.0000000015     6     1     5     7
 -0.0003141208     6     1     7     5
 0.0000000006     6     1     7     6
 0.0000000064     6     1     8     3
 -0.0019745674     6     1     8     4
 0.0002074612     6     1     9     3
 -0.0000000006     6     1     9     4
 -0.0027676432     6     2     1     5
 -0.0000000086     6     2     1     6
 0.0000000086     6     2     2     5
 -0.2614638295     6     2     2     6
 -0.0002494236     6     2     3     8
 0.0000000006     6     2     3     9
 0.0000000003     6     2     4     8
 0.0001048571     6     2     4     9
 -0.0007831524     6     2     5     1
 0.0000000006     6     2     7     5
 0.0003141037     6     2     7     6
 0.0028165293     6     2     8     3
 0.0000000040     6     2     8     4
 -0.0000000018     6     2     9     3
 -0.0006345062     6     2     9     4
 -0.0000000102     6     3     1     8
 -0.0008216639     6     3     1     9
 -0.0043419814     6     3     2     8
 0.0000000039     6     3     2     9
 0.0000000005     6     3     3     5
 -0.2390058168     6     3     3     6
 0.0279290357     6     3     4     5
 0.0000000005     6     3     4     6
 0.0455877493     6     3     5     4
 -0.0249370116     6     3     7     8
 0.0000000175     6     3     7     9
 -0.0000000064     6     3     8     1
 -0.0028165293     6     3     8     2
 -0.0251560617     6     3     8     7
 -0.0002074612     6     3     9     1
 0.0000000018     6     3     9     2
 0.0000000177     6     3     9     7
 0.0022442305     6     4     1     8
 0.0000000019     6     4     1     9
 -0.0000000043     6     4     2     8
 0.0012760882     6     4     2     9
 -0.0188814269     6     4     3     5
 0.0000000005     6     4     3     6
 -0.0000000005     6     4     4     5
 -0.2299582075     6     4     4     6
 -0.0455877493     6     4     5     3
 -0.0000000175     6     4     7     8
 -0.0249369852     6     4     7     9
 0.0019745674     6     4     8     1
 -0.0000000040     6     4     8     2