&FCI NORB= 19,NELEC= 14,MS2=0,
 ORBSYM=1,1,1,1,1,1,1,1,1,1,1,1,1,1,1,1,1,1,1
 ISYM=1,
&END
 0.3720376756     1     1     2     2
 -0.0032650739     1     1     2     4
 -0.0075652690     1     1     2    10
 0.0103561471     1     1     2    11
 -0.0018803953     1     1     2    18
 0.6791791764     1     1     3     3
 -0.0000000009     1     1     3     4
 0.0591879167     1     1     3     5
 0.0000000007     1     1     3    10
 -0.0000000002     1     1     3    11
 -0.0130381662     1     1     3    14
 0.1547950272     1     1     3    15
 0.0000000005     1     1     3    18
 -0.0032650739     1     1     4     2
 -0.0000000009     1     1     4     3
 0.6187625166     1     1     4     4
 0.0000000008     1     1     4     5
 -0.0756079191     1     1     4    10
 -0.1117628511     1     1     4    11
 0.0000000004     1     1     4    14
 -0.0000000005     1     1     4    15
 -0.1258714631     1     1     4    18
 0.0591879167     1     1     5     3
 0.0000000008     1     1     5     4
 0.6418737201     1     1     5     5
 0.0000000008     1     1     5    10
 -0.0000000009     1     1     5    11
 0.2046441362     1     1     5    14
 0.0013899706     1     1     5    15
 0.6029871055     1     1     6     6
 0.0000000011     1     1     6     8
 -0.0000000002     1     1     6     9
 -0.1319046175     1     1     6    12
 0.1676754070     1     1     6    13
 -0.0000000005     1     1     6    16
 0.0000000004     1     1     6    17
 0.0151798414     1     1     6    19
 0.6029871055     1     1     7     7
 -0.0000000002     1     1     7     8
 -0.0000000011     1     1     7     9
 0.1676754070     1     1     7    12
 0.1319046175     1     1     7    13
 0.0000000004     1     1     7    16
 0.0000000005     1     1     7    17
 0.0045080520     1     1     7    19
 0.0000000011     1     1     8     6
 -0.0000000002     1     1     8     7
 0.6032919930     1     1     8     8
 -0.0000000006     1     1     8    12
 0.0000000006     1     1     8    13
 -0.2077850886     1     1     8    16
 0.0961627940     1     1     8    17
 -0.0000000003     1     1     8    19
 -0.0000000002     1     1     9     6
 -0.0000000011     1     1     9     7
 0.6032919930     1     1     9     9
 -0.0000000006     1     1     9    12
 -0.0000000006     1     1     9    13
 -0.0961627940     1     1     9    16
 -0.2077850886     1     1     9    17
 0.0000000002     1     1     9    19
 -0.0075652690     1     1    10     2
 0.0000000007     1     1    10     3
 -0.0756079191     1     1    10     4
 0.0000000008     1     1    10     5
 0.6047812328     1     1    10    10
 -0.2190907166     1     1    10    11
 0.0000000002     1     1    10    14
 0.0000000003     1     1    10    15
 0.1254648871     1     1    10    18
 0.0103561471     1     1    11     2
 -0.0000000002     1     1    11     3
 -0.1117628511     1     1    11     4
 -0.0000000009     1     1    11     5
 -0.2190907166     1     1    11    10
 0.5810235948     1     1    11    11
 -0.0000000010     1     1    11    14
 0.0000000001     1     1    11    15
 -0.0121841117     1     1    11    18
 -0.1319046175     1     1    12     6
 0.1676754070     1     1    12     7
 -0.0000000006     1     1    12     8
 -0.0000000006     1     1    12     9
 0.5840289744     1     1    12    12
 0.0000000010     1     1    12    16
 0.0000000004     1     1    12    17
 0.0110933353     1     1    12    19
 0.1676754070     1     1    13     6
 0.1319046175     1     1    13     7
 0.0000000006     1     1    13     8
 -0.0000000006     1     1    13     9
 0.5840289744     1     1    13    13
 -0.0000000004     1     1    13    16
 0.0000000010     1     1    13    17
 -0.0279461853     1     1    13    19
 -0.0130381662     1     1    14     3
 0.0000000004     1     1    14     4
 0.2046441362     1     1    14     5
 0.0000000002     1     1    14    10
 -0.0000000010     1     1    14    11
 0.4993694443     1     1    14    14
 0.0068084906     1     1    14    15
 -0.0000000002     1     1    14    18
 0.1547950272     1     1    15     3
 -0.0000000005     1     1    15     4
 0.0013899706     1     1    15     5
 0.0000000003     1     1    15    10
 0.0000000001     1     1    15    11
 0.0068084906     1     1    15    14
 0.5318443153     1     1    15    15
 0.0000000007     1     1    15    18
 -0.0000000005     1     1    16     6
 0.0000000004     1     1    16     7
 -0.2077850886     1     1    16     8
 -0.0961627940     1     1    16     9
 0.0000000010     1     1    16    12
 -0.0000000004     1     1    16    13
 0.5629182427     1     1    16    16
 0.0000000001     1     1    16    19
 0.0000000004     1     1    17     6
 0.0000000005     1     1    17     7
 0.0961627940     1     1    17     8
 -0.2077850886     1     1    17     9
 0.0000000004     1     1    17    12
 0.0000000010     1     1    17    13
 0.5629182427     1     1    17    17
 -0.0000000001     1     1    17    19
 -0.0018803953     1     1    18     2
 0.0000000005     1     1    18     3
 -0.1258714631     1     1    18     4
 0.1254648871     1     1    18    10
 -0.0121841117     1     1    18    11
 -0.0000000002     1     1    18    14
 0.0000000007     1     1    18    15
 0.5014848091     1     1    18    18
 0.0151798414     1     1    19     6
 0.0045080520     1     1    19     7
 -0.0000000003     1     1    19     8
 0.0000000002     1     1    19     9
 0.0110933353     1     1    19    12
 -0.0279461853     1     1    19    13
 0.0000000001     1     1    19    16
 -0.0000000001     1     1    19    17
 0.5741897673     1     1    19    19
 -0.3720376756     1     2     2     1
 -0.0035256206     1     2     2     3
 -0.0096401315     1     2     2     5
 -0.0000000001     1     2     2    10
 0.0000000001     1     2     2    11
 -0.0081945429     1     2     2    14
 -0.0022034013     1     2     2    15
 0.2216944386     1     2     3     4
 -0.1631303390     1     2     3    10
 0.0400243965     1     2     3    11
 -0.1262207511     1     2     3    18
 0.0032650739     1     2     4     1
 0.2217586795     1     2     4     3
 -0.2109961342     1     2     4     5
 -0.1105159915     1     2     4    14
 0.1180910292     1     2     4    15
 -0.2111688299     1     2     5     4
 -0.1855278893     1     2     5    10
 0.2213873694     1     2     5    11
 0.0022987346     1     2     5    18
 -0.2578412186     1     2     6     8
 0.0398491699     1     2     6     9
 0.1436627639     1     2     6    16
 -0.0955222582     1     2     6    17
 0.0398491699     1     2     7     8
 0.2578412186     1     2     7     9
 -0.0955222582     1     2     7    16
 -0.1436627639     1     2     7    17
 -0.2576274029     1     2     8     6
 0.0398161248     1     2     8     7
 0.1392773087     1     2     8    12
 -0.1299852415     1     2     8    13
 0.0822589984     1     2     8    19
 0.0398161248     1     2     9     6
 0.2576274029     1     2     9     7
 0.1299852415     1     2     9    12
 0.1392773087     1     2     9    13
 -0.0389287653     1     2     9    19
 0.0075652690     1     2    10     1
 -0.1629830093     1     2    10     3
 -0.1851375177     1     2    10     5
 -0.0374892481     1     2    10    14
 -0.0715316934     1     2    10    15
 -0.0103561471     1     2    11     1
 0.0398220613     1     2    11     3
 0.2208499337     1     2    11     5
 0.2459167566     1     2    11    14
 -0.0169160311     1     2    11    15
 0.1394609281     1     2    12     8
 0.1301566105     1     2    12     9
 -0.2527837449     1     2    12    16
 -0.0830567032     1     2    12    17
 -0.1301566105     1     2    13     8
 0.1394609281     1     2    13     9
 0.0830567032     1     2    13    16
 -0.2527837449     1     2    13    17
 -0.1106651964     1     2    14     4
 -0.0378256845     1     2    14    10
 0.2463803727     1     2    14    11
 0.0333388928     1     2    14    18
 0.1180462235     1     2    15     4
 -0.0716339494     1     2    15    10
 -0.0167749129     1     2    15    11
 -0.1714741641     1     2    15    18
 0.1434535159     1     2    16     6
 -0.0953831279     1     2    16     7
 -0.2525063947     1     2    16    12
 0.0829655748     1     2    16    13
 -0.0113877142     1     2    16    19
 -0.0953831279     1     2    17     6
 -0.1434535159     1     2    17     7
 -0.0829655748     1     2    17    12
 -0.2525063947     1     2    17    13
 0.0136487400     1     2    17    19
 0.0018803953     1     2    18     1
 -0.1261847469     1     2    18     3
 0.0023935409     1     2    18     5
 0.0334203230     1     2    18    14
 -0.1714488953     1     2    18    15
 0.0822524470     1     2    19     8
 -0.0389256649     1     2    19     9
 -0.0113825489     1     2    19    16
 0.0136425492     1     2    19    17
 0.0035256206     1     3     2     2
 -0.0000642409     1     3     2     4
 -0.0001473297     1     3     2    10
 0.0002023352     1     3     2    11
 -0.0000360042     1     3     2    18
 -0.6791791764     1     3     3     1
 -0.0128616017     1     3     3     5
 -0.0138494482     1     3     3    14
 -0.0024096004     1     3     3    15
 0.0000000009     1     3     4     1
 -0.2217586795     1     3     4     2
 -0.0048076444     1     3     4     4
 -0.0072540340     1     3     4    10
 0.0100534224     1     3     4    11
 0.0000246441     1     3     4    18
 -0.0591879167     1     3     5     1
 -0.0223048456     1     3     5     5
 -0.0202373632     1     3     5    14
 0.0001367573     1     3     5    15
 -0.0162173844     1     3     6     6
 0.0139559244     1     3     6    12
 -0.0177405868     1     3     6    13
 0.0060696029     1     3     6    19
 -0.0162173844     1     3     7     7
 -0.0177405868     1     3     7    12
 -0.0139559244     1     3     7    13
 0.0018025277     1     3     7    19
 -0.0165422920     1     3     8     8
 0.0177763179     1     3     8    16
 -0.0082268675     1     3     8    17
 -0.0165422920     1     3     9     9
 0.0082268675     1     3     9    16
 0.0177763179     1     3     9    17
 -0.0000000007     1     3    10     1
 0.1629830093     1     3    10     2
 -0.0094677814     1     3    10     4
 -0.0081651325     1     3    10    10
 0.0153117230     1     3    10    11
 0.0010247605     1     3    10    18
 0.0000000002     1     3    11     1
 -0.0398220613     1     3    11     2
 0.0107820380     1     3    11     4
 0.0100617750     1     3    11    10
 -0.0206660435     1     3    11    11
 -0.0014318855     1     3    11    18
 0.0084763976     1     3    12     6
 -0.0107750847     1     3    12     7
 -0.0178235489     1     3    12    12
 -0.0015805297     1     3    12    19
 -0.0107750847     1     3    13     6
 -0.0084763976     1     3    13     7
 -0.0178235489     1     3    13    13
 0.0039816498     1     3    13    19
 0.0130381662     1     3    14     1
 -0.0125922832     1     3    14     5
 -0.0133337416     1     3    14    14
 0.0012358088     1     3    14    15
 -0.1547950272     1     3    15     1
 -0.0032639781     1     3    15     5
 -0.0036341574     1     3    15    14
 0.0005131495     1     3    15    15
 0.0129991104     1     3    16     8
 0.0060159792     1     3    16     9
 -0.0176457838     1     3    16    16
 -0.0060159792     1     3    17     8
 0.0129991104     1     3    17     9
 -0.0176457838     1     3    17    17
 -0.0000000005     1     3    18     1
 0.1261847469     1     3    18     2
 -0.0015822062     1     3    18     4
 -0.0009854262     1     3    18    10
 0.0026675960     1     3    18    11
 0.0004347158     1     3    18    18
 0.0018966136     1     3    19     6
 0.0005632491     1     3    19     7
 -0.0000447907     1     3    19    12
 0.0001128364     1     3    19    13
 -0.0011855291     1     3    19    19
 0.0032650739     1     4     2     1
 0.0000642409     1     4     2     3
 0.0001726957     1     4     2     5
 0.0001492049     1     4     2    14
 0.0000448057     1     4     2    15
 0.0000000009     1     4     3     1
 -0.2216944386     1     4     3     2
 0.0022137474     1     4     3    10
 -0.0007286156     1     4     3    11
 0.0016068503     1     4     3    18
 -0.6187625166     1     4     4     1
 0.0048076444     1     4     4     3
 0.0029363126     1     4     4     5
 0.0055386372     1     4     4    14
 0.0029201067     1     4     4    15
 -0.0000000008     1     4     5     1
 0.2111688299     1     4     5     2
 0.0185718252     1     4     5    10
 -0.0231509587     1     4     5    11
 0.0080865390     1     4     5    18
 0.0154775849     1     4     6     8
 -0.0023920493     1     4     6     9
 -0.0167061826     1     4     6    16
 0.0111080439     1     4     6    17
 -0.0023920493     1     4     7     8
 -0.0154775849     1     4     7     9
 0.0111080439     1     4     7    16
 0.0167061826     1     4     7    17
 0.0171056993     1     4     8     6
 -0.0026436732     1     4     8     7
 -0.0172570366     1     4     8    12
 0.0161057110     1     4     8    13
 -0.0015812937     1     4     8    19
 -0.0026436732     1     4     9     6
 -0.0171056993     1     4     9     7
 -0.0161057110     1     4     9    12
 -0.0172570366     1     4     9    13
 0.0007483413     1     4     9    19
 0.0756079191     1     4    10     1
 0.0094677814     1     4    10     3
 0.0140692022     1     4    10     5
 0.0141928776     1     4    10    14
 0.0070043891     1     4    10    15
 0.1117628511     1     4    11     1
 -0.0107820380     1     4    11     3
 -0.0147110043     1     4    11     5
 -0.0127517789     1     4    11    14
 -0.0085579332     1     4    11    15
 -0.0111489723     1     4    12     8
 -0.0104051541     1     4    12     9
 0.0171932962     1     4    12    16
 0.0056491707     1     4    12    17
 0.0104051541     1     4    13     8
 -0.0111489723     1     4    13     9
 -0.0056491707     1     4    13    16
 0.0171932962     1     4    13    17
 -0.0000000004     1     4    14     1
 0.1106651964     1     4    14     2
 0.0123605469     1     4    14    10
 -0.0118163207     1     4    14    11
 0.0057203403     1     4    14    18
 0.0000000005     1     4    15     1
 -0.1180462235     1     4    15     2
 0.0011591867     1     4    15    10
 -0.0006130245     1     4    15    11
 0.0005060681     1     4    15    18
 -0.0116954810     1     4    16     6
 0.0077763975     1     4    16     7
 0.0169360834     1     4    16    12
 -0.0055646587     1     4    16    13
 0.0012290426     1     4    16    19
 0.0077763975     1     4    17     6
 0.0116954810     1     4    17     7
 0.0055646587     1     4    17    12
 0.0169360834     1     4    17    13
 -0.0014730685     1     4    17    19
 0.1258714631     1     4    18     1
 0.0015822062     1     4    18     3
 0.0029013127     1     4    18     5
 0.0021575065     1     4    18    14
 0.0010621068     1     4    18    15
 -0.0034732550     1     4    19     8
 0.0016437050     1     4    19     9
 0.0039954075     1     4    19    16
 -0.0047886940     1     4    19    17
 0.0096401315     1     5     2     2
 -0.0001726957     1     5     2     4
 -0.0003903716     1     5     2    10
 0.0005374357     1     5     2    11
 -0.0000948063     1     5     2    18
 -0.0591879167     1     5     3     1
 0.0128616017     1     5     3     3
 -0.0076450800     1     5     3    14
 0.0034007354     1     5     3    15
 -0.0000000008     1     5     4     1
 0.2109961342     1     5     4     2
 -0.0029363126     1     5     4     4
 0.0045026230     1     5     4    10
 -0.0084399544     1     5     4    11
 0.0051852263     1     5     4    18
 -0.6418737201     1     5     5     1
 0.0223048456     1     5     5     3
 0.0011352137     1     5     5    14
 0.0151649725     1     5     5    15
 0.0099782710     1     5     6     6
 -0.0045796318     1     5     6    12
 0.0058215675     1     5     6    13
 0.0076441097     1     5     6    19
 0.0099782710     1     5     7     7
 0.0058215675     1     5     7    12
 0.0045796318     1     5     7    13
 0.0022701188     1     5     7    19
 0.0085068487     1     5     8     8
 -0.0091992538     1     5     8    16
 0.0042574083     1     5     8    17
 0.0085068487     1     5     9     9
 -0.0042574083     1     5     9    16
 -0.0091992538     1     5     9    17
 -0.0000000008     1     5    10     1
 0.1851375177     1     5    10     2
 -0.0140692022     1     5    10     4
 0.0159228940     1     5    10    10
 -0.0088802375     1     5    10    11
 0.0134299563     1     5    10    18
 0.0000000009     1     5    11     1
 -0.2208499337     1     5    11     2
 0.0147110043     1     5    11     4
 -0.0168215877     1     5    11    10
 0.0046667996     1     5    11    11
 -0.0156402154     1     5    11    18
 -0.0034701520     1     5    12     6
 0.0044112115     1     5    12     7
 0.0088481744     1     5    12    12
 -0.0011330753     1     5    12    19
 0.0044112115     1     5    13     6
 0.0034701520     1     5    13     7
 0.0088481744     1     5    13    13
 0.0028544284     1     5    13    19
 -0.2046441362     1     5    14     1
 0.0125922832     1     5    14     3
 -0.0029965070     1     5    14    14
 0.0125367524     1     5    14    15
 -0.0013899706     1     5    15     1
 0.0032639781     1     5    15     3
 -0.0018142943     1     5    15    14
 0.0065204245     1     5    15    15
 -0.0054271500     1     5    16     8
 -0.0025116813     1     5    16     9
 0.0071220015     1     5    16    16
 0.0025116813     1     5    17     8
 -0.0054271500     1     5    17     9
 0.0071220015     1     5    17    17
 -0.0023935409     1     5    18     2
 -0.0029013127     1     5    18     4
 0.0038235362     1     5    18    10
 -0.0000069072     1     5    18    11
 0.0051292932     1     5    18    18
 0.0002779518     1     5    19     6
 0.0000825450     1     5    19     7
 0.0028420589     1     5    19    12
 -0.0071596778     1     5    19    13
 0.0064940722     1     5    19    19
 -0.0002138157     1     6     2     8
 0.0000330451     1     6     2     9
 0.0002092480     1     6     2    16
 -0.0001391303     1     6     2    17
 0.0054795268     1     6     3    12
 -0.0069655021     1     6     3    13
 0.0041729893     1     6     3    19
 -0.0016281144     1     6     4     8
 0.0002516239     1     6     4     9
 -0.0050107016     1     6     4    16
 0.0033316464     1     6     4    17
 -0.0011094798     1     6     5    12
 0.0014103560     1     6     5    13
 0.0073661579     1     6     5    19
 -0.6029871055     1     6     6     1
 0.0162173844     1     6     6     3
 -0.0099782710     1     6     6     5
 -0.0103075056     1     6     6    14
 0.0047915188     1     6     6    15
 -0.0000000011     1     6     8     1
 0.2576274029     1     6     8     2
 -0.0171056993     1     6     8     4
 0.0121500965     1     6     8    10
 -0.0023518228     1     6     8    11
 0.0082958968     1     6     8    18
 0.0000000002     1     6     9     1
 -0.0398161248     1     6     9     2
 0.0026436732     1     6     9     4
 -0.0018777884     1     6     9    10
 0.0003634725     1     6     9    11
 -0.0012821247     1     6     9    18
 0.0000458741     1     6    10     8
 -0.0000070898     1     6    10     9
 0.0015251528     1     6    10    16
 -0.0010140835     1     6    10    17
 0.0001157743     1     6    11     8
 -0.0000178928     1     6    11     9
 -0.0011282622     1     6    11    16
 0.0007501885     1     6    11    17
 0.1319046175     1     6    12     1
 -0.0084763976     1     6    12     3
 0.0034701520     1     6    12     5
 0.0048492261     1     6    12    14
 -0.0083839219     1     6    12    15
 -0.1676754070     1     6    13     1
 0.0107750847     1     6    13     3
 -0.0044112115     1     6    13     5
 -0.0061642721     1     6    13    14
 0.0106575306     1     6    13    15
 -0.0005530884     1     6    14    12
 0.0007030788     1     6    14    13
 0.0014775554     1     6    14    19
 -0.0035434922     1     6    15    12
 0.0045044404     1     6    15    13
 -0.0009086830     1     6    15    19
 0.0000000005     1     6    16     1
 -0.1434535159     1     6    16     2
 0.0116954810     1     6    16     4
 -0.0079086146     1     6    16    10
 -0.0026390506     1     6    16    11
 -0.0115517812     1     6    16    18
 -0.0000000004     1     6    17     1
 0.0953831279     1     6    17     2
 -0.0077763975     1     6    17     4
 0.0052584866     1     6    17    10
 0.0017547211     1     6    17    11
 0.0076808506     1     6    17    18
 -0.0007233662     1     6    18     8
 0.0001117958     1     6    18     9
 -0.0028882683     1     6    18    16
 0.0019204274     1     6    18    17
 -0.0151798414     1     6    19     1
 -0.0018966136     1     6    19     3
 -0.0002779518     1     6    19     5
 -0.0056893923     1     6    19    14
 -0.0043769201     1     6    19    15
 0.0000330451     1     7     2     8
 0.0002138157     1     7     2     9
 -0.0001391303     1     7     2    16
 -0.0002092480     1     7     2    17
 -0.0069655021     1     7     3    12
 -0.0054795268     1     7     3    13
 0.0012392786     1     7     3    19
 0.0002516239     1     7     4     8
 0.0016281144     1     7     4     9
 0.0033316464     1     7     4    16
 0.0050107016     1     7     4    17
 0.0014103560     1     7     5    12
 0.0011094798     1     7     5    13
 0.0021875738     1     7     5    19
 -0.6029871055     1     7     7     1
 0.0162173844     1     7     7     3
 -0.0099782710     1     7     7     5
 -0.0103075056     1     7     7    14
 0.0047915188     1     7     7    15
 0.0000000002     1     7     8     1
 -0.0398161248     1     7     8     2
 0.0026436732     1     7     8     4
 -0.0018777884     1     7     8    10
 0.0003634725     1     7     8    11
 -0.0012821247     1     7     8    18
 0.0000000011     1     7     9     1
 -0.2576274029     1     7     9     2
 0.0171056993     1     7     9     4
 -0.0121500965     1     7     9    10
 0.0023518228     1     7     9    11
 -0.0082958968     1     7     9    18
 -0.0000070898     1     7    10     8
 -0.0000458741     1     7    10     9
 -0.0010140835     1     7    10    16
 -0.0015251528     1     7    10    17
 -0.0000178928     1     7    11     8
 -0.0001157743     1     7    11     9
 0.0007501885     1     7    11    16
 0.0011282622     1     7    11    17
 -0.1676754070     1     7    12     1
 0.0107750847     1     7    12     3
 -0.0044112115     1     7    12     5
 -0.0061642721     1     7    12    14
 0.0106575306     1     7    12    15
 -0.1319046175     1     7    13     1
 0.0084763976     1     7    13     3
 -0.0034701520     1     7    13     5
 -0.0048492261     1     7    13    14
 0.0083839219     1     7    13    15
 0.0007030788     1     7    14    12
 0.0005530884     1     7    14    13
 0.0004387988     1     7    14    19
 0.0045044404     1     7    15    12
 0.0035434922     1     7    15    13
 -0.0002698573     1     7    15    19
 -0.0000000004     1     7    16     1
 0.0953831279     1     7    16     2
 -0.0077763975     1     7    16     4
 0.0052584866     1     7    16    10
 0.0017547211     1     7    16    11
 0.0076808506     1     7    16    18
 -0.0000000005     1     7    17     1
 0.1434535159     1     7    17     2
 -0.0116954810     1     7    17     4
 0.0079086146     1     7    17    10
 0.0026390506     1     7    17    11
 0.0115517812     1     7    17    18
 0.0001117958     1     7    18     8
 0.0007233662     1     7    18     9
 0.0019204274     1     7    18    16
 0.0028882683     1     7    18    17
 -0.0045080520     1     7    19     1
 -0.0005632491     1     7    19     3
 -0.0000825450     1     7    19     5
 -0.0016896142     1     7    19    14
 -0.0012998412     1     7    19    15
 0.0002138157     1     8     2     6
 -0.0000330451     1     8     2     7
 -0.0001836194     1     8     2    12
 0.0001713690     1     8     2    13
 0.0000065514     1     8     2    19
 0.0047772075     1     8     3    16
 -0.0022108883     1     8     3    17
 0.0016281144     1     8     4     6
 -0.0002516239     1     8     4     7
 -0.0061080643     1     8     4    12
 0.0057005569     1     8     4    13
 0.0018919613     1     8     4    19
 -0.0037721038     1     8     5    16
 0.0017457270     1     8     5    17
 -0.0000000011     1     8     6     1
 0.2578412186     1     8     6     2
 -0.0154775849     1     8     6     4
 0.0121042224     1     8     6    10
 -0.0024675971     1     8     6    11
 0.0090192630     1     8     6    18
 0.0000000002     1     8     7     1
 -0.0398491699     1     8     7     2
 0.0023920493     1     8     7     4
 -0.0018706986     1     8     7    10
 0.0003813653     1     8     7    11
 -0.0013939205     1     8     7    18
 -0.6032919930     1     8     8     1
 0.0165422920     1     8     8     3
 -0.0085068487     1     8     8     5
 -0.0072479508     1     8     8    14
 0.0084000896     1     8     8    15
 -0.0000458741     1     8    10     6
 0.0000070898     1     8    10     7
 0.0020959901     1     8    10    12
 -0.0019561534     1     8    10    13
 0.0046738295     1     8    10    19
 -0.0001157743     1     8    11     6
 0.0000178928     1     8    11     7
 -0.0006746492     1     8    11    12
 0.0006296392     1     8    11    13
 -0.0037668735     1     8    11    19
 0.0000000006     1     8    12     1
 -0.1394609281     1     8    12     2
 0.0111489723     1     8    12     4
 -0.0074356796     1     8    12    10
 -0.0015091743     1     8    12    11
 -0.0100297804     1     8    12    18
 -0.0000000006     1     8    13     1
 0.1301566105     1     8    13     2
 -0.0104051541     1     8    13     4
 0.0069395985     1     8    13    10
 0.0014084878     1     8    13    11
 0.0093606305     1     8    13    18
 -0.0000088263     1     8    14    16
 0.0000040848     1     8    14    17
 -0.0014630357     1     8    15    16
 0.0006770919     1     8    15    17
 0.2077850886     1     8    16     1
 -0.0129991104     1     8    16     3
 0.0054271500     1     8    16     5
 0.0082084798     1     8    16    14
 -0.0107722332     1     8    16    15
 -0.0961627940     1     8    17     1
 0.0060159792     1     8    17     3
 -0.0025116813     1     8    17     5
 -0.0037988787     1     8    17    14
 0.0049853821     1     8    17    15
 0.0007233662     1     8    18     6
 -0.0001117958     1     8    18     7
 -0.0022590473     1     8    18    12
 0.0021083319     1     8    18    13
 0.0007045194     1     8    18    19
 0.0000000003     1     8    19     1
 -0.0822524470     1     8    19     2
 0.0034732550     1     8    19     4
 -0.0025608630     1     8    19    10
 0.0037894904     1     8    19    11
 -0.0022696876     1     8    19    18
 -0.0000330451     1     9     2     6
 -0.0002138157     1     9     2     7
 -0.0001713690     1     9     2    12
 -0.0001836194     1     9     2    13
 -0.0000031004     1     9     2    19
 0.0022108883     1     9     3    16
 0.0047772075     1     9     3    17
 -0.0002516239     1     9     4     6
 -0.0016281144     1     9     4     7
 -0.0057005569     1     9     4    12
 -0.0061080643     1     9     4    13
 -0.0008953637     1     9     4    19
 -0.0017457270     1     9     5    16
 -0.0037721038     1     9     5    17
 0.0000000002     1     9     6     1
 -0.0398491699     1     9     6     2
 0.0023920493     1     9     6     4
 -0.0018706986     1     9     6    10
 0.0003813653     1     9     6    11
 -0.0013939205     1     9     6    18
 0.0000000011     1     9     7     1
 -0.2578412186     1     9     7     2
 0.0154775849     1     9     7     4
 -0.0121042224     1     9     7    10
 0.0024675971     1     9     7    11
 -0.0090192630     1     9     7    18
 -0.6032919930     1     9     9     1
 0.0165422920     1     9     9     3
 -0.0085068487     1     9     9     5
 -0.0072479508     1     9     9    14
 0.0084000896     1     9     9    15
 0.0000070898     1     9    10     6
 0.0000458741     1     9    10     7
 0.0019561534     1     9    10    12
 0.0020959901     1     9    10    13
 -0.0022118725     1     9    10    19
 0.0000178928     1     9    11     6
 0.0001157743     1     9    11     7
 -0.0006296392     1     9    11    12
 -0.0006746492     1     9    11    13
 0.0017826589     1     9    11    19
 0.0000000006     1     9    12     1
 -0.1301566105     1     9    12     2
 0.0104051541     1     9    12     4
 -0.0069395985     1     9    12    10
 -0.0014084878     1     9    12    11
 -0.0093606305     1     9    12    18
 0.0000000006     1     9    13     1
 -0.1394609281     1     9    13     2
 0.0111489723     1     9    13     4
 -0.0074356796     1     9    13    10
 -0.0015091743     1     9    13    11
 -0.0100297804     1     9    13    18
 -0.0000040848     1     9    14    16
 -0.0000088263     1     9    14    17
 -0.0006770919     1     9    15    16
 -0.0014630357     1     9    15    17
 0.0961627940     1     9    16     1
 -0.0060159792     1     9    16     3
 0.0025116813     1     9    16     5
 0.0037988787     1     9    16    14
 -0.0049853821     1     9    16    15
 0.2077850886     1     9    17     1
 -0.0129991104     1     9    17     3
 0.0054271500     1     9    17     5
 0.0082084798     1     9    17    14
 -0.0107722332     1     9    17    15
 -0.0001117958     1     9    18     6
 -0.0007233662     1     9    18     7
 -0.0021083319     1     9    18    12
 -0.0022590473     1     9    18    13
 -0.0003334112     1     9    18    19
 -0.0000000002     1     9    19     1
 0.0389256649     1     9    19     2
 -0.0016437050     1     9    19     4
 0.0012119188     1     9    19    10
 -0.0017933623     1     9    19    11
 0.0010741212     1     9    19    18
 0.0075652690     1    10     2     1
 0.0000000001     1    10     2     2