&FCI NORB= 13,NELEC= 14,MS2=0,
 ORBSYM=1,1,1,1,1,1,1,1,1,1,1,1,1
 ISYM=1,
&END
 0.3454514086     1     1     2     2
 0.0000000001     1     1     2     3
 -0.0024262217     1     1     2     4
 -0.0073257108     1     1     2    10
 0.0084230637     1     1     2    11
 0.0000000001     1     1     3     2
 0.6519278393     1     1     3     3
 -0.0000000055     1     1     3     4
 0.0472042149     1     1     3     5
 0.0000000034     1     1     3    10
 -0.0000000002     1     1     3    11
 -0.0024262217     1     1     4     2
 -0.0000000055     1     1     4     3
 0.6137907656     1     1     4     4
 0.0000000042     1     1     4     5
 -0.0670484345     1     1     4    10
 -0.1131018052     1     1     4    11
 0.0472042149     1     1     5     3
 0.0000000042     1     1     5     4
 0.6290287574     1     1     5     5
 0.0000000049     1     1     5    10
 -0.0000000046     1     1     5    11
 0.5878599276     1     1     6     6
 -0.0000000059     1     1     6     8
 -0.0000000005     1     1     6     9
 -0.1607149527     1     1     6    12
 0.1358312379     1     1     6    13
 0.5878599276     1     1     7     7
 0.0000000005     1     1     7     8
 -0.0000000059     1     1     7     9
 0.1358312379     1     1     7    12
 0.1607149527     1     1     7    13
 -0.0000000059     1     1     8     6
 0.0000000005     1     1     8     7
 0.5976583839     1     1     8     8
 0.0000000036     1     1     8    12
 -0.0000000026     1     1     8    13
 -0.0000000005     1     1     9     6
 -0.0000000059     1     1     9     7
 0.5976583839     1     1     9     9
 -0.0000000026     1     1     9    12
 -0.0000000036     1     1     9    13
 -0.0073257108     1     1    10     2
 0.0000000034     1     1    10     3
 -0.0670484345     1     1    10     4
 0.0000000049     1     1    10     5
 0.6295979772     1     1    10    10
 -0.2089740169     1     1    10    11
 0.0084230637     1     1    11     2
 -0.0000000002     1     1    11     3
 -0.1131018052     1     1    11     4
 -0.0000000046     1     1    11     5
 -0.2089740169     1     1    11    10
 0.5434652618     1     1    11    11
 -0.1607149527     1     1    12     6
 0.1358312379     1     1    12     7
 0.0000000036     1     1    12     8
 -0.0000000026     1     1    12     9
 0.5837288832     1     1    12    12
 0.1358312379     1     1    13     6
 0.1607149527     1     1    13     7
 -0.0000000026     1     1    13     8
 -0.0000000036     1     1    13     9
 0.5837288832     1     1    13    13
 -0.3454514086     1     2     2     1
 -0.0024607155     1     2     2     3
 -0.0082195674     1     2     2     5
 0.0000000001     1     2     2    11
 -0.0000000001     1     2     3     1
 0.2461725887     1     2     3     4
 -0.1519967111     1     2     3    10
 0.0105856735     1     2     3    11
 0.0024262217     1     2     4     1
 0.2462094110     1     2     4     3
 -0.1945419625     1     2     4     5
 -0.1946613148     1     2     5     4
 -0.2226516397     1     2     5    10
 0.2080714108     1     2     5    11
 0.2698706707     1     2     6     8
 0.0216486209     1     2     6     9
 -0.0216486209     1     2     7     8
 0.2698706707     1     2     7     9
 0.2696991639     1     2     8     6
 -0.0216348629     1     2     8     7
 -0.1650885917     1     2     8    12
 0.1182663030     1     2     8    13
 0.0216348629     1     2     9     6
 0.2696991639     1     2     9     7
 0.1182663030     1     2     9    12
 0.1650885917     1     2     9    13
 0.0073257108     1     2    10     1
 -0.1518873362     1     2    10     3
 -0.2223042261     1     2    10     5
 -0.0084230637     1     2    11     1
 0.0104593061     1     2    11     3
 0.2076695325     1     2    11     5
 -0.1652538910     1     2    12     8
 0.1183847203     1     2    12     9
 0.1183847203     1     2    13     8
 0.1652538910     1     2    13     9
 -0.0000000001     1     3     2     1
 0.0024607155     1     3     2     2
 -0.0000368223     1     3     2     4
 -0.0001093749     1     3     2    10
 0.0001263674     1     3     2    11
 -0.6519278393     1     3     3     1
 -0.0105246533     1     3     3     5
 -0.0000000001     1     3     3    10
 0.0000000002     1     3     3    11
 0.0000000055     1     3     4     1
 -0.2462094110     1     3     4     2
 -0.0036012128     1     3     4     4
 -0.0000000001     1     3     4     5
 -0.0074484450     1     3     4    10
 0.0085053791     1     3     4    11
 -0.0472042149     1     3     5     1
 -0.0000000001     1     3     5     4
 -0.0215790207     1     3     5     5
 -0.0000000002     1     3     5    10
 0.0000000003     1     3     5    11
 -0.0163362901     1     3     6     6
 0.0000000003     1     3     6     8
 0.0174192564     1     3     6    12
 -0.0147222092     1     3     6    13
 -0.0163362901     1     3     7     7
 0.0000000003     1     3     7     9
 -0.0147222092     1     3     7    12
 -0.0174192564     1     3     7    13
 0.0000000002     1     3     8     6
 -0.0171328412     1     3     8     8
 -0.0000000002     1     3     8    12
 0.0000000001     1     3     8    13
 0.0000000002     1     3     9     7
 -0.0171328412     1     3     9     9
 0.0000000001     1     3     9    12
 0.0000000002     1     3     9    13
 -0.0000000034     1     3    10     1
 0.1518873362     1     3    10     2
 -0.0090539375     1     3    10     4
 -0.0000000001     1     3    10     5
 -0.0119949810     1     3    10    10
 0.0173907421     1     3    10    11
 0.0000000002     1     3    11     1
 -0.0104593061     1     3    11     2
 0.0084790155     1     3    11     4
 0.0000000002     1     3    11     5
 0.0119464665     1     3    11    10
 -0.0187942920     1     3    11    11
 0.0106904718     1     3    12     6
 -0.0090352515     1     3    12     7
 -0.0000000002     1     3    12     8
 0.0000000001     1     3    12     9
 -0.0185578019     1     3    12    12
 -0.0090352515     1     3    13     6
 -0.0106904718     1     3    13     7
 0.0000000001     1     3    13     8
 0.0000000002     1     3    13     9
 -0.0185578019     1     3    13    13
 0.0024262217     1     4     2     1
 0.0000368223     1     4     2     3
 0.0001193523     1     4     2     5
 0.0000000055     1     4     3     1
 -0.2461725887     1     4     3     2
 0.0016054925     1     4     3    10
 0.0000263636     1     4     3    11
 -0.6137907656     1     4     4     1
 0.0036012128     1     4     4     3
 0.0027119845     1     4     4     5
 -0.0000000001     1     4     4    11
 -0.0000000042     1     4     5     1
 0.1946613148     1     4     5     2
 0.0000000001     1     4     5     3
 0.0000000003     1     4     5     5
 0.0200390624     1     4     5    10
 -0.0217083042     1     4     5    11
 0.0000000002     1     4     6     6
 -0.0163616590     1     4     6     8
 -0.0013125078     1     4     6     9
 -0.0000000002     1     4     6    12
 0.0000000001     1     4     6    13
 0.0000000002     1     4     7     7
 0.0013125078     1     4     7     8
 -0.0163616590     1     4     7     9
 0.0000000001     1     4     7    12
 0.0000000002     1     4     7    13
 -0.0176747562     1     4     8     6
 0.0014178425     1     4     8     7
 0.0000000003     1     4     8     8
 0.0197414043     1     4     8    12
 -0.0141423636     1     4     8    13
 -0.0014178425     1     4     9     6
 -0.0176747562     1     4     9     7
 0.0000000003     1     4     9     9
 -0.0141423636     1     4     9    12
 -0.0197414043     1     4     9    13
 0.0670484345     1     4    10     1
 0.0090539375     1     4    10     3
 0.0162498030     1     4    10     5
 0.0000000002     1     4    10    10
 -0.0000000003     1     4    10    11
 0.1131018052     1     4    11     1
 -0.0084790155     1     4    11     3
 -0.0141738013     1     4    11     5
 -0.0000000002     1     4    11    10
 0.0000000002     1     4    11    11
 -0.0000000002     1     4    12     6
 0.0000000001     1     4    12     7
 0.0131139132     1     4    12     8
 -0.0093945560     1     4    12     9
 0.0000000002     1     4    12    12
 0.0000000001     1     4    13     6
 0.0000000002     1     4    13     7
 -0.0093945560     1     4    13     8
 -0.0131139132     1     4    13     9
 0.0000000002     1     4    13    13
 0.0082195674     1     5     2     2
 -0.0001193523     1     5     2     4
 -0.0003474136     1     5     2    10
 0.0004018783     1     5     2    11
 -0.0472042149     1     5     3     1
 0.0105246533     1     5     3     3
 -0.0000000001     1     5     3    10
 0.0000000001     1     5     3    11
 -0.0000000042     1     5     4     1
 0.1945419625     1     5     4     2
 0.0000000001     1     5     4     3
 -0.0027119845     1     5     4     4
 0.0037892594     1     5     4    10
 -0.0075345029     1     5     4    11
 -0.6290287574     1     5     5     1
 0.0215790207     1     5     5     3
 -0.0000000003     1     5     5     4
 0.0000000001     1     5     5    10
 0.0087271710     1     5     6     6
 -0.0046631371     1     5     6    12
 0.0039411373     1     5     6    13
 0.0087271710     1     5     7     7
 0.0039411373     1     5     7    12
 0.0046631371     1     5     7    13
 0.0078467930     1     5     8     8
 0.0000000001     1     5     8    12
 0.0078467930     1     5     9     9
 -0.0000000001     1     5     9    13
 -0.0000000049     1     5    10     1
 0.2223042261     1     5    10     2
 0.0000000001     1     5    10     3
 -0.0162498030     1     5    10     4
 0.0167745618     1     5    10    10
 -0.0067760368     1     5    10    11
 0.0000000046     1     5    11     1
 -0.2076695325     1     5    11     2
 -0.0000000002     1     5    11     3
 0.0141738013     1     5    11     4
 -0.0142955070     1     5    11    10
 0.0014179065     1     5    11    11
 -0.0038814738     1     5    12     6
 0.0032805000     1     5    12     7
 0.0086545711     1     5    12    12
 0.0032805000     1     5    13     6
 0.0038814738     1     5    13     7
 0.0086545711     1     5    13    13
 0.0001715068     1     6     2     8
 0.0000137580     1     6     2     9
 0.0000000001     1     6     3     8
 0.0067287846     1     6     3    12
 -0.0056869577     1     6     3    13
 0.0013130972     1     6     4     8
 0.0001053347     1     6     4     9
 -0.0007816633     1     6     5    12
 0.0006606373     1     6     5    13
 -0.5878599276     1     6     6     1
 0.0163362901     1     6     6     3
 -0.0000000002     1     6     6     4
 -0.0087271710     1     6     6     5
 0.0000000001     1     6     6    10
 0.0000000001     1     6     6    11
 0.0000000059     1     6     8     1
 -0.2696991639     1     6     8     2
 -0.0000000002     1     6     8     3
 0.0176747562     1     6     8     4
 -0.0112157620     1     6     8    10
 0.0004168311     1     6     8    11
 0.0000000005     1     6     9     1
 -0.0216348629     1     6     9     2
 0.0014178425     1     6     9     4
 -0.0008997116     1     6     9    10
 0.0000334375     1     6     9    11
 0.0000822658     1     6    10     8
 0.0000065993     1     6    10     9
 0.0000000001     1     6    10    12
 -0.0000000001     1     6    10    13
 -0.0001308657     1     6    11     8
 -0.0000104979     1     6    11     9
 0.1607149527     1     6    12     1
 -0.0106904718     1     6    12     3
 0.0000000002     1     6    12     4
 0.0038814738     1     6    12     5
 -0.1358312379     1     6    13     1
 0.0090352515     1     6    13     3
 -0.0000000001     1     6    13     4
 -0.0032805000     1     6    13     5
 -0.0000137580     1     7     2     8
 0.0001715068     1     7     2     9
 0.0000000001     1     7     3     9
 -0.0056869577     1     7     3    12
 -0.0067287846     1     7     3    13
 -0.0001053347     1     7     4     8
 0.0013130972     1     7     4     9
 0.0006606373     1     7     5    12
 0.0007816633     1     7     5    13
 -0.5878599276     1     7     7     1
 0.0163362901     1     7     7     3
 -0.0000000002     1     7     7     4
 -0.0087271710     1     7     7     5
 0.0000000001     1     7     7    10
 0.0000000001     1     7     7    11
 -0.0000000005     1     7     8     1
 0.0216348629     1     7     8     2
 -0.0014178425     1     7     8     4
 0.0008997116     1     7     8    10
 -0.0000334375     1     7     8    11
 0.0000000059     1     7     9     1
 -0.2696991639     1     7     9     2
 -0.0000000002     1     7     9     3
 0.0176747562     1     7     9     4
 -0.0112157620     1     7     9    10
 0.0004168311     1     7     9    11
 -0.0000065993     1     7    10     8
 0.0000822658     1     7    10     9
 -0.0000000001     1     7    10    12
 -0.0000000001     1     7    10    13
 0.0000104979     1     7    11     8
 -0.0001308657     1     7    11     9
 -0.1358312379     1     7    12     1
 0.0090352515     1     7    12     3
 -0.0000000001     1     7    12     4
 -0.0032805000     1     7    12     5
 -0.1607149527     1     7    13     1
 0.0106904718     1     7    13     3
 -0.0000000002     1     7    13     4
 -0.0038814738     1     7    13     5
 -0.0001715068     1     8     2     6
 0.0000137580     1     8     2     7
 0.0001652993     1     8     2    12
 -0.0001184173     1     8     2    13
 -0.0000000001     1     8     3     6
 -0.0013130972     1     8     4     6
 0.0001053347     1     8     4     7
 0.0066274911     1     8     4    12
 -0.0047478076     1     8     4    13
 0.0000000001     1     8     5    12
 0.0000000059     1     8     6     1
 -0.2698706707     1     8     6     2
 -0.0000000003     1     8     6     3
 0.0163616590     1     8     6     4
 -0.0112980278     1     8     6    10
 0.0005476968     1     8     6    11
 -0.0000000005     1     8     7     1
 0.0216486209     1     8     7     2
 -0.0013125078     1     8     7     4
 0.0009063109     1     8     7    10
 -0.0000439354     1     8     7    11
 -0.5976583839     1     8     8     1
 0.0171328412     1     8     8     3
 -0.0000000003     1     8     8     4
 -0.0078467930     1     8     8     5
 0.0000000001     1     8     8    10
 -0.0000822658     1     8    10     6
 0.0000065993     1     8    10     7
 -0.0021800650     1     8    10    12
 0.0015617568     1     8    10    13
 0.0001308657     1     8    11     6
 -0.0000104979     1     8    11     7
 0.0005472012     1     8    11    12
 -0.0003920044     1     8    11    13
 -0.0000000036     1     8    12     1
 0.1652538910     1     8    12     2
 0.0000000002     1     8    12     3
 -0.0131139132     1     8    12     4
 0.0076740655     1     8    12    10
 0.0028638791     1     8    12    11
 0.0000000026     1     8    13     1
 -0.1183847203     1     8    13     2
 -0.0000000001     1     8    13     3
 0.0093945560     1     8    13     4
 -0.0054975534     1     8    13    10
 -0.0020516281     1     8    13    11
 -0.0000137580     1     9     2     6
 -0.0001715068     1     9     2     7
 -0.0001184173     1     9     2    12
 -0.0001652993     1     9     2    13
 -0.0000000001     1     9     3     7
 -0.0001053347     1     9     4     6
 -0.0013130972     1     9     4     7
 -0.0047478076     1     9     4    12
 -0.0066274911     1     9     4    13
 -0.0000000001     1     9     5    13
 0.0000000005     1     9     6     1
 -0.0216486209     1     9     6     2
 0.0013125078     1     9     6     4
 -0.0009063109     1     9     6    10
 0.0000439354     1     9     6    11
 0.0000000059     1     9     7     1
 -0.2698706707     1     9     7     2
 -0.0000000003     1     9     7     3
 0.0163616590     1     9     7     4
 -0.0112980278     1     9     7    10
 0.0005476968     1     9     7    11
 -0.5976583839     1     9     9     1
 0.0171328412     1     9     9     3
 -0.0000000003     1     9     9     4
 -0.0078467930     1     9     9     5
 0.0000000001     1     9     9    10
 -0.0000065993     1     9    10     6
 -0.0000822658     1     9    10     7
 0.0015617568     1     9    10    12
 0.0021800650     1     9    10    13
 0.0000104979     1     9    11     6
 0.0001308657     1     9    11     7
 -0.0003920044     1     9    11    12
 -0.0005472012     1     9    11    13
 0.0000000026     1     9    12     1
 -0.1183847203     1     9    12     2
 -0.0000000001     1     9    12     3
 0.0093945560     1     9    12     4
 -0.0054975534     1     9    12    10
 -0.0020516281     1     9    12    11
 0.0000000036     1     9    13     1
 -0.1652538910     1     9    13     2
 -0.0000000002     1     9    13     3
 0.0131139132     1     9    13     4
 -0.0076740655     1     9    13    10
 -0.0028638791     1     9    13    11
 0.0073257108     1    10     2     1
 0.0001093749     1    10     2     3
 0.0003474136     1    10     2     5
 -0.0000000034     1    10     3     1
 0.1519967111     1    10     3     2
 0.0000000001     1    10     3     3
 -0.0016054925     1    10     3     4
 0.0000000001     1    10     3     5
 0.0054442756     1    10     3    11
 0.0670484345     1    10     4     1
 0.0074484450     1    10     4     3
 -0.0037892594     1    10     4     5
 -0.0000000001     1    10     4    11
 -0.0000000049     1    10     5     1
 0.2226516397     1    10     5     2
 0.0000000002     1    10     5     3
 -0.0200390624     1    10     5     4
 -0.0000000001     1    10     5     5
 0.0075194702     1    10     5    11
 -0.0000000001     1    10     6     6
 0.0112980278     1    10     6     8
 0.0009063109     1    10     6     9
 0.0000000001     1    10     6    12
 -0.0000000001     1    10     6    13
 -0.0000000001     1    10     7     7
 -0.0009063109     1    10     7     8
 0.0112980278     1    10     7     9
 -0.0000000001     1    10     7    12
 -0.0000000001     1    10     7    13
 0.0112157620     1    10     8     6
 -0.0008997116     1    10     8     7
 -0.0000000001     1    10     8     8
 -0.0098541305     1    10     8    12
 0.0070593102     1    10     8    13
 0.0008997116     1    10     9     6
 0.0112157620     1    10     9     7
 -0.0000000001     1    10     9     9
 0.0070593102     1    10     9    12
 0.0098541305     1    10     9    13
 -0.6295979772     1    10    10     1
 0.0119949810     1    10    10     3
 -0.0000000002     1    10    10     4
 -0.0167745618     1    10    10     5
 0.0000000002     1    10    10    11
 0.2089740169     1    10    11     1
 -0.0119464665     1    10    11     3
 0.0000000002     1    10    11     4
 0.0142955070     1    10    11     5
 -0.0000000002     1    10    11    11
 -0.0076740655     1    10    12     8
 0.0054975534     1    10    12     9
 -0.0000000001     1    10    12    12
 0.0054975534     1    10    13     8
 0.0076740655     1    10    13     9
 -0.0000000001     1    10    13    13
 -0.0084230637     1    11     2     1
 -0.0000000001     1    11     2     2
 -0.0001263674     1    11     2     3
 -0.0004018783     1    11     2     5
 0.0000000002     1    11     3     1
 -0.0105856735     1    11     3     2
 -0.0000000002     1    11     3     3
 -0.0000263636     1    11     3     4
 -0.0000000001     1    11     3     5
 -0.0054442756     1    11     3    10
 0.1131018052     1    11     4     1
 -0.0085053791     1    11     4     3
 0.0000000001     1    11     4     4
 0.0075345029     1    11     4     5
 0.0000000001     1    11     4    10
 0.0000000046     1    11     5     1
 -0.2080714108     1    11     5     2
 -0.0000000003     1    11     5     3
 0.0217083042     1    11     5     4
 -0.0075194702     1    11     5    10
 -0.0000000001     1    11     6     6
 -0.0005476968     1    11     6     8
 -0.0000439354     1    11     6     9
 -0.0000000001     1    11     7     7
 0.0000439354     1    11     7     8
 -0.0005476968     1    11     7     9
 -0.0004168311     1    11     8     6
 0.0000334375     1    11     8     7
 -0.0023166779     1    11     8    12
 0.0016596237     1    11     8    13
 -0.0000334375     1    11     9     6
 -0.0004168311     1    11     9     7
 0.0016596237     1    11     9    12
 0.0023166779     1    11     9    13
 0.2089740169     1    11    10     1
 -0.0173907421     1    11    10     3
 0.0000000003     1    11    10     4
 0.0067760368     1    11    10     5
 -0.0000000002     1    11    10    10
 -0.5434652618     1    11    11     1
 0.0187942920     1    11    11     3
 -0.0000000002     1    11    11     4
 -0.0014179065     1    11    11     5
 0.0000000002     1    11    11    10
 -0.0028638791     1    11    12     8
 0.0020516281     1    11    12     9
 -0.0000000001     1    11    12    12
 0.0020516281     1    11    13     8
 0.0028638791     1    11    13     9
 -0.0000000001     1    11    13    13
 -0.0001652993     1    12     2     8
 0.0001184173     1    12     2     9
 -0.0067287846     1    12     3     6
 0.0056869577     1    12     3     7
 -0.0066274911     1    12     4     8
 0.0047478076     1    12     4     9
 0.0007816633     1    12     5     6
 -0.0006606373     1    12     5     7
 -0.0000000001     1    12     5     8
 0.1607149527     1    12     6     1
 -0.0174192564     1    12     6     3
 0.0000000002     1    12     6     4
 0.0046631371     1    12     6     5
 -0.0000000001     1    12     6    10
 -0.1358312379     1    12     7     1
 0.0147222092     1    12     7     3
 -0.0000000001     1    12     7     4
 -0.0039411373     1    12     7     5
 0.0000000001     1    12     7    10
 -0.0000000036     1    12     8     1
 0.1650885917     1    12     8     2
 0.0000000002     1    12     8     3
 -0.0197414043     1    12     8     4
 -0.0000000001     1    12     8     5
 0.0098541305     1    12     8    10
 0.0023166779     1    12     8    11
 0.0000000026     1    12     9     1
 -0.1182663030     1    12     9     2
 -0.0000000001     1    12     9     3
 0.0141423636     1    12     9     4
 -0.0070593102     1    12     9    10
 -0.0016596237     1    12     9    11
 -0.0000000001     1    12    10     6
 0.0000000001     1    12    10     7
 0.0021800650     1    12    10     8
 -0.0015617568     1    12    10     9
 -0.0005472012     1    12    11     8
 0.0003920044     1    12    11     9
 -0.5837288832     1    12    12     1
 0.0185578019     1    12    12     3
 -0.0000000002     1    12    12     4
 -0.0086545711     1    12    12     5
 0.0000000001     1    12    12    10
 0.0000000001     1    12    12    11
 0.0001184173     1    13     2     8
 0.0001652993     1    13     2     9
 0.0056869577     1    13     3     6
 0.0067287846     1    13     3     7
 0.0047478076     1    13     4     8
 0.0066274911     1    13     4     9
 -0.0006606373     1    13     5     6
 -0.0007816633     1    13     5     7
 0.0000000001     1    13     5     9
 -0.1358312379     1    13     6     1
 0.0147222092     1    13     6     3
 -0.0000000001     1    13     6     4
 -0.0039411373     1    13     6     5
 0.0000000001     1    13     6    10
 -0.1607149527     1    13     7     1
 0.0174192564     1    13     7     3
 -0.0000000002     1    13     7     4
 -0.0046631371     1    13     7     5
 0.0000000001     1    13     7    10
 0.0000000026     1    13     8     1
 -0.1182663030     1    13     8     2
 -0.0000000001     1    13     8     3
 0.0141423636     1    13     8     4
 -0.0070593102     1    13     8    10
 -0.0016596237     1    13     8    11
 0.0000000036     1    13     9     1
 -0.1650885917     1    13     9     2
 -0.0000000002     1    13     9     3
 0.0197414043     1    13     9     4
 0.0000000001     1    13     9     5
 -0.0098541305     1    13     9    10
 -0.0023166779     1    13     9    11
 0.0000000001     1    13    10     6
 0.0000000001     1    13    10     7
 -0.0015617568     1    13    10     8
 -0.0021800650     1    13    10     9
 0.0003920044     1    13    11     8
 0.0005472012     1    13    11     9
 -0.5837288832     1    13    13     1
 0.0185578019     1    13    13     3
 -0.0000000002     1    13    13     4
 -0.0086545711     1    13    13     5
 0.0000000001     1    13    13    10
 0.0000000001     1    13    13    11
 -0.3454514086     2     1     1     2
 -0.0000000001     2     1     1     3
 0.0024262217     2     1     1     4
 0.0073257108     2     1     1    10
 -0.0084230637     2     1     1    11
 -0.0024607155     2     1     3     2
 0.2462094110     2     1     3     4
 -0.1518873362     2     1     3    10
 0.0104593061     2     1     3    11
 0.2461725887     2     1     4     3
 -0.1946613148     2     1     4     5
 -0.0082195674     2     1     5     2
 -0.1945419625     2     1     5     4
 -0.2223042261     2     1     5    10
 0.2076695325     2     1     5    11
 0.2696991639     2     1     6     8
 0.0216348629     2     1     6     9
 -0.0216348629     2     1     7     8
 0.2696991639     2     1     7     9
 0.2698706707     2     1     8     6
 -0.0216486209     2     1     8     7
 -0.1652538910     2     1     8    12
 0.1183847203     2     1     8    13
 0.0216486209     2     1     9     6
 0.2698706707     2     1     9     7
 0.1183847203     2     1     9    12
 0.1652538910     2     1     9    13
 -0.1519967111     2     1    10     3
 -0.2226516397     2     1    10     5
 0.0000000001     2     1    11     2
 0.0105856735     2     1    11     3
 0.2080714108     2     1    11     5
 -0.1650885917     2     1    12     8
 0.1182663030     2     1    12     9
 0.1182663030     2     1    13     8
 0.1650885917     2     1    13     9
 0.3454514086     2     2     1     1
 0.0024607155     2     2     1     3
 0.0082195674     2     2     1     5
 -0.0000000001     2     2     1    11
 0.0024607155     2     2     3     1
 0.6519515199     2     2     3     3
 0.0000000055     2     2     3     4
 0.0473073789     2     2     3     5
 -0.0000000034     2     2     3    10
 0.0000000003     2     2     3    11
 0.0000000055     2     2     4     3
 0.6137634609     2     2     4     4
 -0.0000000042     2     2     4     5
 -0.0671411110     2     2     4    10
 -0.1129927792     2     2     4    11
 0.0082195674     2     2     5     1
 0.0473073789     2     2     5     3
 -0.0000000042     2     2     5     4
 0.6294240298     2     2     5     5
 -0.0000000049     2     2     5    10
 0.0000000046     2     2     5    11
 0.5880350307     2     2     6     6
 0.0000000059     2     2     6     8
 0.0000000005     2     2     6     9
 -0.1608778177     2     2     6    12
 0.1359688863     2     2     6    13
 0.5880350307     2     2     7     7
 -0.0000000005     2     2     7     8
 0.0000000059     2     2     7     9
 0.1359688863     2     2     7    12
 0.1608778177     2     2     7    13
 0.0000000059     2     2     8     6
 -0.0000000005     2     2     8     7
 0.5974944117     2     2     8     8
 -0.0000000036     2     2     8    12
 0.0000000026     2     2     8    13
 0.0000000005     2     2     9     6
 0.0000000059     2     2     9     7
 0.5974944117     2     2     9     9
 0.0000000026     2     2     9    12
 0.0000000036     2     2     9    13
 -0.0000000034     2     2    10     3
 -0.0671411110     2     2    10     4
 -0.0000000049     2     2    10     5
 0.6292761212     2     2    10    10
 -0.2086115886     2     2    10    11
 -0.0000000001     2     2    11     1
 0.0000000003     2     2    11     3
 -0.1129927792     2     2    11     4
 0.0000000046     2     2    11     5
 -0.2086115886     2     2    11    10
 0.5430597305     2     2    11    11
 -0.1608778177     2     2    12     6
 0.1359688863     2     2    12     7
 -0.0000000036     2     2    12     8
 0.0000000026     2     2    12     9
 0.5839808888     2     2    12    12
 0.1359688863     2     2    13     6
 0.1608778177     2     2    13     7
 0.0000000026     2     2    13     8
 0.0000000036     2     2    13     9
 0.5839808888     2     2    13    13
 0.0000000001     2     3     1     1
 -0.0024607155     2     3     1     2
 0.0000368223     2     3     1     4
 0.0001093749     2     3     1    10
 -0.0001263674     2     3     1    11
 -0.6519515199     2     3     3     2
 0.0034000885     2     3     3     4
 -0.0000000001     2     3     3     5
 0.0112955631     2     3     3    10
 -0.0138595011     2     3     3    11
 -0.2461725887     2     3     4     1
 -0.0000000055     2     3     4     2
 0.0095160798     2     3     4     5
 -0.0000000001     2     3     4    10
 0.0000000001     2     3     4    11
 -0.0473073789     2     3     5     2
 0.0116065800     2     3     5     4
 -0.0000000003     2     3     5     5
 0.0195799494     2     3     5    10
 -0.0251264866     2     3     5    11
 -0.0000000001     2     3     6     6
 -0.0199566012     2     3     6     8
 -0.0016008887     2     3     6     9
 0.0000000001     2     3     6    12
 -0.0000000001     2     3     6    13
 -0.0000000001     2     3     7     7
 0.0016008887     2     3     7     8
 -0.0199566012     2     3     7     9
 -0.0000000001     2     3     7    12
 -0.0000000001     2     3     7    13
 -0.0171214845     2     3     8     6
 0.0013734598     2     3     8     7
 -0.0000000002     2     3     8     8
 0.0176796152     2     3     8    12
 -0.0126653375     2     3     8    13
 -0.0013734598     2     3     9     6
 -0.0171214845     2     3     9     7
 -0.0000000002     2     3     9     9
 -0.0126653375     2     3     9    12
 -0.0176796152     2     3     9    13
 0.1519967111     2     3    10     1
 0.0000000034     2     3    10     2
 -0.0000000001     2     3    10     4
 0.0166600834     2     3    10     5
 -0.0000000001     2     3    10    10
 0.0000000002     2     3    10    11
 -0.0105856735     2     3    11     1
 -0.0000000003     2     3    11     2
 0.0000000001     2     3    11     4
 -0.0163263412     2     3    11     5
 0.0000000001     2     3    11    10
 -0.0000000002     2     3    11    11
 0.0000000001     2     3    12     6