&FCI NORB=  6,NELEC=  6,MS2=0,
 ORBSYM=1,1,1,1,1,1
 ISYM=1,
&END
 0.4098399484     1     1     2     2
 -0.0000000021     1     1     2     4
 -0.0000000020     1     1     2     5
 0.4098399484     1     1     3     3
 0.0000000020     1     1     3     4
 -0.0000000021     1     1     3     5
 -0.0000000021     1     1     4     2
 0.0000000020     1     1     4     3
 0.4036414217     1     1     4     4
 -0.0000000020     1     1     5     2
 -0.0000000021     1     1     5     3
 0.4036414217     1     1     5     5
 0.2826946196     1     1     6     6
 -0.4098399484     1     2     2     1
 -0.0000000043     1     2     2     6
 0.0000000021     1     2     4     1
 0.1095223783     1     2     4     6
 0.0000000020     1     2     5     1
 0.0971801905     1     2     5     6
 -0.0019831027     1     2     6     4
 -0.0017596249     1     2     6     5
 -0.4098399484     1     3     3     1
 -0.0000000043     1     3     3     6
 -0.0000000020     1     3     4     1
 -0.0971801905     1     3     4     6
 0.0000000021     1     3     5     1
 0.1095223783     1     3     5     6
 0.0017596249     1     3     6     4
 -0.0019831027     1     3     6     5
 0.0000000021     1     4     2     1
 0.1063484178     1     4     2     6
 -0.0000000020     1     4     3     1
 -0.0943639069     1     4     3     6
 -0.4036414217     1     4     4     1
 0.0000000031     1     4     4     6
 0.0019831027     1     4     6     2
 -0.0017596249     1     4     6     3
 0.0000000020     1     5     2     1
 0.0943639069     1     5     2     6
 0.0000000021     1     5     3     1
 0.1063484178     1     5     3     6
 -0.4036414217     1     5     5     1
 0.0000000031     1     5     5     6
 0.0017596249     1     5     6     2
 0.0019831027     1     5     6     3
 0.0000000043     1     6     2     2
 -0.1063484178     1     6     2     4
 -0.0943639069     1     6     2     5
 0.0000000043     1     6     3     3
 0.0943639069     1     6     3     4
 -0.1063484178     1     6     3     5
 -0.1095223783     1     6     4     2
 0.0971801905     1     6     4     3
 -0.0000000031     1     6     4     4
 -0.0971801905     1     6     5     2
 -0.1095223783     1     6     5     3
 -0.0000000031     1     6     5     5
 -0.2826946196     1     6     6     1
 -0.4098399484     2     1     1     2
 0.0000000021     2     1     1     4
 0.0000000020     2     1     1     5
 -0.0019831027     2     1     4     6
 -0.0017596249     2     1     5     6
 -0.0000000043     2     1     6     2
 0.1095223783     2     1     6     4
 0.0971801905     2     1     6     5
 0.4098399484     2     2     1     1
 0.0000000043     2     2     1     6
 0.4064448405     2     2     3     3
 0.0000000029     2     2     3     4
 -0.0000000033     2     2     3     5
 0.0000000029     2     2     4     3
 0.3130125667     2     2     4     4
 -0.0761230954     2     2     4     5
 -0.0000000033     2     2     5     3
 -0.0761230954     2     2     5     4
 0.3312588264     2     2     5     5
 0.0000000043     2     2     6     1
 0.4132785738     2     2     6     6
 -0.4064448405     2     3     3     2
 0.0000000033     2     3     3     4
 0.0000000029     2     3     3     5
 -0.0000000029     2     3     4     2
 0.0761230954     2     3     4     4
 0.0692110190     2     3     4     5
 0.0000000033     2     3     5     2
 -0.0874572787     2     3     5     4
 -0.0761230954     2     3     5     5
 -0.0000000021     2     4     1     1
 -0.1063484178     2     4     1     6
 -0.0000000029     2     4     3     2
 -0.0000000033     2     4     3     3
 0.1501704042     2     4     3     5
 -0.3130125667     2     4     4     2
 -0.0761230954     2     4     4     3
 -0.0000000024     2     4     4     5
 0.0761230954     2     4     5     2
 0.0874572787     2     4     5     3
 0.0000000026     2     4     5     5
 -0.1095223783     2     4     6     1
 0.0000000015     2     4     6     6
 -0.0000000020     2     5     1     1
 -0.0943639069     2     5     1     6
 0.0000000033     2     5     3     2
 -0.0000000029     2     5     3     3
 -0.1501704042     2     5     3     4
 0.0761230954     2     5     4     2
 -0.0692110190     2     5     4     3
 0.0000000024     2     5     4     4
 -0.3312588264     2     5     5     2
 0.0761230954     2     5     5     3
 -0.0000000026     2     5     5     4
 -0.0971801905     2     5     6     1
 0.0000000013     2     5     6     6
 -0.0000000043     2     6     1     2
 0.1063484178     2     6     1     4
 0.0943639069     2     6     1     5
 0.0019831027     2     6     4     1
 0.0017596249     2     6     5     1
 -0.4132785738     2     6     6     2
 -0.0000000015     2     6     6     4
 -0.0000000013     2     6     6     5
 -0.4098399484     3     1     1     3
 -0.0000000020     3     1     1     4
 0.0000000021     3     1     1     5
 0.0017596249     3     1     4     6
 -0.0019831027     3     1     5     6
 -0.0000000043     3     1     6     3
 -0.0971801905     3     1     6     4
 0.1095223783     3     1     6     5
 -0.4064448405     3     2     2     3
 -0.0000000029     3     2     2     4
 0.0000000033     3     2     2     5
 0.0000000033     3     2     4     3
 0.0761230954     3     2     4     4
 -0.0874572787     3     2     4     5
 0.0000000029     3     2     5     3
 0.0692110190     3     2     5     4
 -0.0761230954     3     2     5     5
 0.4098399484     3     3     1     1
 0.0000000043     3     3     1     6
 0.4064448405     3     3     2     2
 -0.0000000033     3     3     2     4
 -0.0000000029     3     3     2     5
 -0.0000000033     3     3     4     2
 0.3312588264     3     3     4     4
 0.0761230954     3     3     4     5
 -0.0000000029     3     3     5     2
 0.0761230954     3     3     5     4
 0.3130125667     3     3     5     5
 0.0000000043     3     3     6     1
 0.4132785738     3     3     6     6
 0.0000000020     3     4     1     1
 0.0943639069     3     4     1     6
 0.0000000029     3     4     2     2
 0.0000000033     3     4     2     3
 -0.1501704042     3     4     2     5
 -0.0761230954     3     4     4     2
 -0.3312588264     3     4     4     3
 -0.0000000026     3     4     4     5
 -0.0692110190     3     4     5     2
 -0.0761230954     3     4     5     3
 -0.0000000024     3     4     5     5
 0.0971801905     3     4     6     1
 -0.0000000013     3     4     6     6
 -0.0000000021     3     5     1     1
 -0.1063484178     3     5     1     6
 -0.0000000033     3     5     2     2
 0.0000000029     3     5     2     3
 0.1501704042     3     5     2     4
 0.0874572787     3     5     4     2
 -0.0761230954     3     5     4     3
 0.0000000026     3     5     4     4
 0.0761230954     3     5     5     2
 -0.3130125667     3     5     5     3
 0.0000000024     3     5     5     4
 -0.1095223783     3     5     6     1
 0.0000000015     3     5     6     6
 -0.0000000043     3     6     1     3
 -0.0943639069     3     6     1     4
 0.1063484178     3     6     1     5
 -0.0017596249     3     6     4     1
 0.0019831027     3     6     5     1
 -0.4132785738     3     6     6     3
 0.0000000013     3     6     6     4
 -0.0000000015     3     6     6     5
 0.0000000021     4     1     1     2
 -0.0000000020     4     1     1     3
 -0.4036414217     4     1     1     4
 0.0019831027     4     1     2     6
 -0.0017596249     4     1     3     6
 0.1063484178     4     1     6     2
 -0.0943639069     4     1     6     3
 0.0000000031     4     1     6     4
 -0.0000000021     4     2     1     1
 -0.1095223783     4     2     1     6
 -0.0000000029     4     2     2     3
 -0.3130125667     4     2     2     4
 0.0761230954     4     2     2     5
 -0.0000000033     4     2     3     3
 -0.0761230954     4     2     3     4
 0.0874572787     4     2     3     5
 0.1501704042     4     2     5     3
 -0.0000000024     4     2     5     4
 0.0000000026     4     2     5     5
 -0.1063484178     4     2     6     1
 0.0000000015     4     2     6     6
 0.0000000020     4     3     1     1
 0.0971801905     4     3     1     6
 0.0000000029     4     3     2     2
 -0.0761230954     4     3     2     4
 -0.0692110190     4     3     2     5
 0.0000000033     4     3     3     2
 -0.3312588264     4     3     3     4
 -0.0761230954     4     3     3     5
 -0.1501704042     4     3     5     2
 -0.0000000026     4     3     5     4
 -0.0000000024     4     3     5     5
 0.0943639069     4     3     6     1
 -0.0000000013     4     3     6     6
 0.4036414217     4     4     1     1
 -0.0000000031     4     4     1     6
 0.3130125667     4     4     2     2
 0.0761230954     4     4     2     3
 0.0000000024     4     4     2     5
 0.0761230954     4     4     3     2
 0.3312588264     4     4     3     3
 0.0000000026     4     4     3     5
 0.0000000024     4     4     5     2
 0.0000000026     4     4     5     3
 0.3926646828     4     4     5     5
 -0.0000000031     4     4     6     1
 0.4043275810     4     4     6     6
 -0.0761230954     4     5     2     2
 0.0692110190     4     5     2     3
 -0.0000000024     4     5     2     4
 -0.0874572787     4     5     3     2
 0.0761230954     4     5     3     3
 -0.0000000026     4     5     3     4
 -0.0000000026     4     5     5     2
 0.0000000024     4     5     5     3
 -0.3926646828     4     5     5     4
 0.1095223783     4     6     1     2
 -0.0971801905     4     6     1     3
 0.0000000031     4     6     1     4
 -0.0019831027     4     6     2     1
 0.0017596249     4     6     3     1
 -0.0000000015     4     6     6     2
 0.0000000013     4     6     6     3
 -0.4043275810     4     6     6     4
 0.0000000020     5     1     1     2
 0.0000000021     5     1     1     3
 -0.4036414217     5     1     1     5
 0.0017596249     5     1     2     6
 0.0019831027     5     1     3     6
 0.0943639069     5     1     6     2
 0.1063484178     5     1     6     3
 0.0000000031     5     1     6     5
 -0.0000000020     5     2     1     1
 -0.0971801905     5     2     1     6
 0.0000000033     5     2     2     3
 0.0761230954     5     2     2     4
 -0.3312588264     5     2     2     5
 -0.0000000029     5     2     3     3
 -0.0692110190     5     2     3     4
 0.0761230954     5     2     3     5
 -0.1501704042     5     2     4     3
 0.0000000024     5     2     4     4
 -0.0000000026     5     2     4     5
 -0.0943639069     5     2     6     1
 0.0000000013     5     2     6     6
 -0.0000000021     5     3     1     1
 -0.1095223783     5     3     1     6
 -0.0000000033     5     3     2     2
 0.0874572787     5     3     2     4
 0.0761230954     5     3     2     5
 0.0000000029     5     3     3     2
 -0.0761230954     5     3     3     4
 -0.3130125667     5     3     3     5
 0.1501704042     5     3     4     2
 0.0000000026     5     3     4     4
 0.0000000024     5     3     4     5
 -0.1063484178     5     3     6     1
 0.0000000015     5     3     6     6
 -0.0761230954     5     4     2     2
 -0.0874572787     5     4     2     3
 -0.0000000026     5     4     2     5
 0.0692110190     5     4     3     2
 0.0761230954     5     4     3     3
 0.0000000024     5     4     3     5
 -0.0000000024     5     4     4     2
 -0.0000000026     5     4     4     3
 -0.3926646828     5     4     4     5
 0.4036414217     5     5     1     1
 -0.0000000031     5     5     1     6
 0.3312588264     5     5     2     2
 -0.0761230954     5     5     2     3
 0.0000000026     5     5     2     4
 -0.0761230954     5     5     3     2
 0.3130125667     5     5     3     3
 -0.0000000024     5     5     3     4
 0.0000000026     5     5     4     2
 -0.0000000024     5     5     4     3
 0.3926646828     5     5     4     4
 -0.0000000031     5     5     6     1
 0.4043275810     5     5     6     6
 0.0971801905     5     6     1     2
 0.1095223783     5     6     1     3
 0.0000000031     5     6     1     5
 -0.0017596249     5     6     2     1
 -0.0019831027     5     6     3     1
 -0.0000000013     5     6     6     2
 -0.0000000015     5     6     6     3
 -0.4043275810     5     6     6     5
 -0.2826946196     6     1     1     6
 0.0000000043     6     1     2     2
 -0.1095223783     6     1     2     4
 -0.0971801905     6     1     2     5
 0.0000000043     6     1     3     3
 0.0971801905     6     1     3     4
 -0.1095223783     6     1     3     5
 -0.1063484178     6     1     4     2
 0.0943639069     6     1     4     3
 -0.0000000031     6     1     4     4
 -0.0943639069     6     1     5     2
 -0.1063484178     6     1     5     3
 -0.0000000031     6     1     5     5
 0.0019831027     6     2     1     4
 0.0017596249     6     2     1     5
 -0.0000000043     6     2     2     1
 -0.4132785738     6     2     2     6
 0.1063484178     6     2     4     1
 -0.0000000015     6     2     4     6
 0.0943639069     6     2     5     1
 -0.0000000013     6     2     5     6
 -0.0017596249     6     3     1     4
 0.0019831027     6     3     1     5
 -0.0000000043     6     3     3     1
 -0.4132785738     6     3     3     6
 -0.0943639069     6     3     4     1
 0.0000000013     6     3     4     6
 0.1063484178     6     3     5     1
 -0.0000000015     6     3     5     6
 -0.0019831027     6     4     1     2
 0.0017596249     6     4     1     3
 0.1095223783     6     4     2     1
 -0.0000000015     6     4     2     6
 -0.0971801905     6     4     3     1
 0.0000000013     6     4     3     6
 0.0000000031     6     4     4     1
 -0.4043275810     6     4     4     6
 -0.0017596249     6     5     1     2
 -0.0019831027     6     5     1     3
 0.0971801905     6     5     2     1
 -0.0000000013     6     5     2     6
 0.1095223783     6     5     3     1
 -0.0000000015     6     5     3     6
 0.0000000031     6     5     5     1
 -0.4043275810     6     5     5     6
 0.2826946196     6     6     1     1
 0.4132785738     6     6     2     2
 0.0000000015     6     6     2     4
 0.0000000013     6     6     2     5
 0.4132785738     6     6     3     3
 -0.0000000013     6     6     3     4
 0.0000000015     6     6     3     5
 0.0000000015     6     6     4     2
 -0.0000000013     6     6     4     3
 0.4043275810     6     6     4     4
 0.0000000013     6     6     5     2
 0.0000000015     6     6     5     3
 0.4043275810     6     6     5     5
0.0 0 0 0 0
 0.4098399484     1     1     2     2
 -0.0000000021     1     1     2     4
 -0.0000000020     1     1     2     5
 0.4098399484     1     1     3     3
 0.0000000020     1     1     3     4
 -0.0000000021     1     1     3     5
 -0.0000000021     1     1     4     2
 0.0000000020     1     1     4     3
 0.4036414217     1     1     4     4
 -0.0000000020     1     1     5     2
 -0.0000000021     1     1     5     3
 0.4036414217     1     1     5     5
 0.2826946196     1     1     6     6
 -0.4098399484     1     2     2     1
 -0.0000000043     1     2     2     6
 0.0000000021     1     2     4     1
 0.1095223783     1     2     4     6
 0.0000000020     1     2     5     1
 0.0971801905     1     2     5     6
 -0.0019831027     1     2     6     4
 -0.0017596249     1     2     6     5
 -0.4098399484     1     3     3     1
 -0.0000000043     1     3     3     6
 -0.0000000020     1     3     4     1
 -0.0971801905     1     3     4     6
 0.0000000021     1     3     5     1
 0.1095223783     1     3     5     6
 0.0017596249     1     3     6     4
 -0.0019831027     1     3     6     5
 0.0000000021     1     4     2     1
 0.1063484178     1     4     2     6
 -0.0000000020     1     4     3     1
 -0.0943639069     1     4     3     6
 -0.4036414217     1     4     4     1
 0.0000000031     1     4     4     6
 0.0019831027     1     4     6     2
 -0.0017596249     1     4     6     3
 0.0000000020     1     5     2     1
 0.0943639069     1     5     2     6
 0.0000000021     1     5     3     1
 0.1063484178     1     5     3     6
 -0.4036414217     1     5     5     1
 0.0000000031     1     5     5     6
 0.0017596249     1     5     6     2
 0.0019831027     1     5     6     3
 0.0000000043     1     6     2     2
 -0.1063484178     1     6     2     4
 -0.0943639069     1     6     2     5
 0.0000000043     1     6     3     3
 0.0943639069     1     6     3     4
 -0.1063484178     1     6     3     5
 -0.1095223783     1     6     4     2
 0.0971801905     1     6     4     3
 -0.0000000031     1     6     4     4
 -0.0971801905     1     6     5     2
 -0.1095223783     1     6     5     3
 -0.0000000031     1     6     5     5
 -0.2826946196     1     6     6     1
 -0.4098399484     2     1     1     2
 0.0000000021     2     1     1     4
 0.0000000020     2     1     1     5
 -0.0019831027     2     1     4     6
 -0.0017596249     2     1     5     6
 -0.0000000043     2     1     6     2
 0.1095223783     2     1     6     4
 0.0971801905     2     1     6     5
 0.4098399484     2     2     1     1
 0.0000000043     2     2     1     6
 0.4064448405     2     2     3     3
 0.0000000029     2     2     3     4
 -0.0000000033     2     2     3     5
 0.0000000029     2     2     4     3
 0.3130125667     2     2     4     4
 -0.0761230954     2     2     4     5
 -0.0000000033     2     2     5     3
 -0.0761230954     2     2     5     4
 0.3312588264     2     2     5     5
 0.0000000043     2     2     6     1
 0.4132785738     2     2     6     6
 -0.4064448405     2     3     3     2
 0.0000000033     2     3     3     4
 0.0000000029     2     3     3     5
 -0.0000000029     2     3     4     2
 0.0761230954     2     3     4     4
 0.0692110190     2     3     4     5
 0.0000000033     2     3     5     2
 -0.0874572787     2     3     5     4
 -0.0761230954     2     3     5     5
 -0.0000000021     2     4     1     1
 -0.1063484178     2     4     1     6
 -0.0000000029     2     4     3     2
 -0.0000000033     2     4     3     3
 0.1501704042     2     4     3     5
 -0.3130125667     2     4     4     2
 -0.0761230954     2     4     4     3
 -0.0000000024     2     4     4     5
 0.0761230954     2     4     5     2
 0.0874572787     2     4     5     3
 0.0000000026     2     4     5     5
 -0.1095223783     2     4     6     1
 0.0000000015     2     4     6     6
 -0.0000000020     2     5     1     1
 -0.0943639069     2     5     1     6
 0.0000000033     2     5     3     2
 -0.0000000029     2     5     3     3
 -0.1501704042     2     5     3     4
 0.0761230954     2     5     4     2
 -0.0692110190     2     5     4     3
 0.0000000024     2     5     4     4
 -0.3312588264     2     5     5     2
 0.0761230954     2     5     5     3
 -0.0000000026     2     5     5     4
 -0.0971801905     2     5     6     1
 0.0000000013     2     5     6     6
 -0.0000000043     2     6     1     2
 0.1063484178     2     6     1     4
 0.0943639069     2     6     1     5
 0.0019831027     2     6     4     1
 0.0017596249     2     6     5     1
 -0.4132785738     2     6     6     2
 -0.0000000015     2     6     6     4
 -0.0000000013     2     6     6     5
 -0.4098399484     3     1     1     3
 -0.0000000020     3     1     1     4
 0.0000000021     3     1     1     5
 0.0017596249     3     1     4     6
 -0.0019831027     3     1     5     6
 -0.0000000043     3     1     6     3
 -0.0971801905     3     1     6     4
 0.1095223783     3     1     6     5
 -0.4064448405     3     2     2     3
 -0.0000000029     3     2     2     4
 0.0000000033     3     2     2     5
 0.0000000033     3     2     4     3
 0.0761230954     3     2     4     4
 -0.0874572787     3     2     4     5
 0.0000000029     3     2     5     3
 0.0692110190     3     2     5     4
 -0.0761230954     3     2     5     5
 0.4098399484     3     3     1     1
 0.0000000043     3     3     1     6
 0.4064448405     3     3     2     2
 -0.0000000033     3     3     2     4
 -0.0000000029     3     3     2     5
 -0.0000000033     3     3     4     2
 0.3312588264     3     3     4     4
 0.0761230954     3     3     4     5
 -0.0000000029     3     3     5     2
 0.0761230954     3     3     5     4
 0.3130125667     3     3     5     5
 0.0000000043     3     3     6     1
 0.4132785738     3     3     6     6
 0.0000000020     3     4     1     1
 0.0943639069     3     4     1     6
 0.0000000029     3     4     2     2
 0.0000000033     3     4     2     3
 -0.1501704042     3     4     2     5
 -0.0761230954     3     4     4     2
 -0.3312588264     3     4     4     3
 -0.0000000026     3     4     4     5
 -0.0692110190     3     4     5     2
 -0.0761230954     3     4     5     3
 -0.0000000024     3     4     5     5
 0.0971801905     3     4     6     1
 -0.0000000013     3     4     6     6
 -0.0000000021     3     5     1     1
 -0.1063484178     3     5     1     6
 -0.0000000033     3     5     2     2
 0.0000000029     3     5     2     3
 0.1501704042     3     5     2     4
 0.0874572787     3     5     4     2
 -0.0761230954     3     5     4     3
 0.0000000026     3     5     4     4
 0.0761230954     3     5     5     2
 -0.3130125667     3     5     5     3
 0.0000000024     3     5     5     4
 -0.1095223783     3     5     6     1
 0.0000000015     3     5     6     6
 -0.0000000043     3     6     1     3
 -0.0943639069     3     6     1     4
 0.1063484178     3     6     1     5
 -0.0017596249     3     6     4     1
 0.0019831027     3     6     5     1
 -0.4132785738     3     6     6     3
 0.0000000013     3     6     6     4
 -0.0000000015     3     6     6     5
 0.0000000021     4     1     1     2
 -0.0000000020     4     1     1     3
 -0.4036414217     4     1     1     4
 0.0019831027     4     1     2     6
 -0.0017596249     4     1     3     6
 0.1063484178     4     1     6     2
 -0.0943639069     4     1     6     3
 0.0000000031     4     1     6     4
 -0.0000000021     4     2     1     1
 -0.1095223783     4     2     1     6
 -0.0000000029     4     2     2     3
 -0.3130125667     4     2     2     4
 0.0761230954     4     2     2     5
 -0.0000000033     4     2     3     3
 -0.0761230954     4     2     3     4
 0.0874572787     4     2     3     5
 0.1501704042     4     2     5     3
 -0.0000000024     4     2     5     4
 0.0000000026     4     2     5     5
 -0.1063484178     4     2     6     1
 0.0000000015     4     2     6     6
 0.0000000020     4     3     1     1
 0.0971801905     4     3     1     6
 0.0000000029     4     3     2     2
 -0.0761230954     4     3     2     4
 -0.0692110190     4     3     2     5
 0.0000000033     4     3     3     2
 -0.3312588264     4     3     3     4
 -0.0761230954     4     3     3     5
 -0.1501704042     4     3     5     2
 -0.0000000026     4     3     5     4
 -0.0000000024     4     3     5     5
 0.0943639069     4     3     6     1
 -0.0000000013     4     3     6     6
 0.4036414217     4     4     1     1
 -0.0000000031     4     4     1     6
 0.3130125667     4     4     2     2
 0.0761230954     4     4     2     3
 0.0000000024     4     4     2     5
 0.0761230954     4     4     3     2
 0.3312588264     4     4     3     3
 0.0000000026     4     4     3     5
 0.0000000024     4     4     5     2
 0.0000000026     4     4     5     3
 0.3926646828     4     4     5     5
 -0.0000000031     4     4     6     1
 0.4043275810     4     4     6     6
 -0.0761230954     4     5     2     2
 0.0692110190     4     5     2     3
 -0.0000000024     4     5     2     4
 -0.0874572787     4     5     3     2
 0.0761230954     4     5     3     3
 -0.0000000026     4     5     3     4
 -0.0000000026     4     5     5     2
 0.0000000024     4     5     5     3
 -0.3926646828     4     5     5     4
 0.1095223783     4     6     1     2
 -0.0971801905     4     6     1     3
 0.0000000031     4     6     1     4
 -0.0019831027     4     6     2     1
 0.0017596249     4     6     3     1
 -0.0000000015     4     6     6     2
 0.0000000013     4     6     6     3
 -0.4043275810     4     6     6     4
 0.0000000020     5     1     1     2
 0.0000000021     5     1     1     3
 -0.4036414217     5     1     1     5
 0.0017596249     5     1     2     6
 0.0019831027     5     1     3     6
 0.0943639069     5     1     6     2
 0.1063484178     5     1     6     3
 0.0000000031     5     1     6     5
 -0.0000000020     5     2     1     1
 -0.0971801905     5     2     1     6
 0.0000000033     5     2     2     3
 0.0761230954     5     2     2     4
 -0.3312588264     5     2     2     5
 -0.0000000029     5     2     3     3
 -0.0692110190     5     2     3     4
 0.0761230954     5     2     3     5
 -0.1501704042     5     2     4     3
 0.0000000024     5     2     4     4
 -0.0000000026     5     2     4     5
 -0.0943639069     5     2     6     1
 0.0000000013     5     2     6     6
 -0.0000000021     5     3     1     1
 -0.1095223783     5     3     1     6
 -0.0000000033     5     3     2     2
 0.0874572787     5     3     2     4
 0.0761230954     5     3     2     5
 0.0000000029     5     3     3     2
 -0.0761230954     5     3     3     4
 -0.3130125667     5     3     3     5
 0.1501704042     5     3     4     2
 0.0000000026     5     3     4     4
 0.0000000024     5     3     4     5
 -0.1063484178     5     3     6     1
 0.0000000015     5     3     6     6
 -0.0761230954     5     4     2     2
 -0.0874572787     5     4     2     3
 -0.0000000026     5     4     2     5
 0.0692110190     5     4     3     2
 0.0761230954     5     4     3     3
 0.0000000024     5     4     3     5
 -0.0000000024     5     4     4     2
 -0.0000000026     5     4     4     3
 -0.3926646828     5     4     4     5
 0.4036414217     5     5     1     1
 -0.0000000031     5     5     1     6
 0.3312588264     5     5     2     2
 -0.0761230954     5     5     2     3
 0.0000000026     5     5     2     4
 -0.0761230954     5     5     3     2
 0.3130125667     5     5     3     3
 -0.0000000024     5     5     3     4
 0.0000000026     5     5     4     2
 -0.0000000024     5     5     4     3
 0.3926646828     5     5     4     4
 -0.0000000031     5     5     6     1
 0.4043275810     5     5     6     6
 0.0971801905     5     6     1     2
 0.1095223783     5     6     1     3
 0.0000000031     5     6     1     5
 -0.0017596249     5     6     2     1
 -0.0019831027     5     6     3     1
 -0.0000000013     5     6     6     2
 -0.0000000015     5     6     6     3
 -0.4043275810     5     6     6     5
 -0.2826946196     6     1     1     6
 0.0000000043     6     1     2     2
 -0.1095223783     6     1     2     4
 -0.0971801905     6     1     2     5
 0.0000000043     6     1     3     3
 0.0971801905     6     1     3     4
 -0.1095223783     6     1     3     5
 -0.1063484178     6     1     4     2
 0.0943639069     6     1     4     3
 -0.0000000031     6     1     4     4
 -0.0943639069     6     1     5     2
 -0.1063484178     6     1     5     3
 -0.0000000031     6     1     5     5
 0.0019831027     6     2     1     4
 0.0017596249     6     2     1     5
 -0.0000000043     6     2     2     1
 -0.4132785738     6     2     2     6
 0.1063484178     6     2     4     1
 -0.0000000015     6     2     4     6
 0.0943639069     6     2     5     1
 -0.0000000013     6     2     5     6
 -0.0017596249     6     3     1     4
 0.0019831027     6     3     1     5
 -0.0000000043     6     3     3     1
 -0.4132785738     6     3     3     6
 -0.0943639069     6     3     4     1
 0.0000000013     6     3     4     6
 0.1063484178     6     3     5     1
 -0.0000000015     6     3     5     6
 -0.0019831027     6     4     1     2
 0.0017596249     6     4     1     3
 0.1095223783     6     4     2     1
 -0.0000000015     6     4     2     6
 -0.0971801905     6     4     3     1
 0.0000000013     6     4     3     6
 0.0000000031     6     4     4     1
 -0.4043275810     6     4     4     6
 -0.0017596249     6     5     1     2
 -0.0019831027     6     5     1     3
 0.0971801905     6     5     2     1
 -0.0000000013     6     5     2     6
 0.1095223783     6     5     3     1
 -0.0000000015     6     5     3     6
 0.0000000031     6     5     5     1
 -0.4043275810     6     5     5     6
 0.2826946196     6     6     1     1
 0.4132785738     6     6     2     2
 0.0000000015     6     6     2     4
 0.0000000013     6     6     2     5
 0.4132785738     6     6     3     3
 -0.0000000013     6     6     3     4
 0.0000000015     6     6     3     5
 0.0000000015     6     6     4     2
 -0.0000000013     6     6     4     3
 0.4043275810     6     6     4     4
 0.0000000013     6     6     5     2
 0.0000000015     6     6     5     3
 0.4043275810     6     6     5     5
0.0 0 0 0 0
 0.4573848011     1     1     1     1
 0.0000000028     1     1     1     6
 0.4229322146     1     1     2     2
 -0.0000000023     1     1     2     4
 -0.0000000021     1     1     2     5
 0.4229322146     1     1     3     3
 0.0000000021     1     1     3     4
 -0.0000000023     1     1     3     5
 -0.0000000023     1     1     4     2
 0.0000000021     1     1     4     3
 0.4259668593     1     1     4     4
 -0.0000000021     1     1     5     2
 -0.0000000023     1     1     5     3
 0.4259668593     1     1     5     5
 0.0000000028     1     1     6     1
 0.4759679572     1     1     6     6
 0.0137992742     1     2     1     2
 -0.0000000001     1     2     1     4
 -0.0000000001     1     2     1     5
 0.0130922662     1     2     2     1
 0.0000000003     1     2     2     6
 -0.0000000002     1     2     4     1
 -0.0128220533     1     2     4     6
 -0.0000000001     1     2     5     1
 -0.0113771231     1     2     5     6
 0.0000000004     1     2     6     2
 -0.0145426710     1     2     6     4
 -0.0129038427     1     2     6     5
 0.0137992742     1     3     1     3
 0.0000000001     1     3     1     4
 -0.0000000001     1     3     1     5
 0.0130922662     1     3     3     1