&FCI NORB= 19,NELEC= 14,MS2=0,
 ORBSYM=1,1,1,1,1,1,1,1,1,1,1,1,1,1,1,1,1,1,1
 ISYM=1,
&END
 0.1859884786     1     1     2     2
 -0.0001319369     1     1     2     4
 -0.0022040129     1     1     2    10
 0.0018216714     1     1     2    14
 -0.0017163846     1     1     2    18
 0.5497246984     1     1     3     3
 -0.0000000004     1     1     3     4
 0.0019341421     1     1     3     5
 0.0848095223     1     1     3    11
 0.0000000001     1     1     3    14
 0.1401234540     1     1     3    17
 0.0000000001     1     1     3    18
 0.0079542843     1     1     3    19
 -0.0001319369     1     1     4     2
 -0.0000000004     1     1     4     3
 0.5548900404     1     1     4     4
 0.0000000001     1     1     4     5
 -0.0220343774     1     1     4    10
 -0.0000000001     1     1     4    11
 -0.1241583325     1     1     4    14
 -0.0000000002     1     1     4    17
 -0.1048515536     1     1     4    18
 0.0019341421     1     1     5     3
 0.0000000001     1     1     5     4
 0.5126082502     1     1     5     5
 0.0000000003     1     1     5    10
 0.1621321797     1     1     5    11
 -0.0000000002     1     1     5    14
 -0.1106837299     1     1     5    17
 0.0000000001     1     1     5    18
 0.0214144532     1     1     5    19
 0.5194323345     1     1     6     6
 -0.0000000003     1     1     6     8
 0.0000000002     1     1     6     9
 0.0001358197     1     1     6    12
 -0.2038660625     1     1     6    13
 -0.0000000002     1     1     6    16
 0.5194323345     1     1     7     7
 0.0000000002     1     1     7     8
 0.0000000003     1     1     7     9
 -0.2038660625     1     1     7    12
 -0.0001358197     1     1     7    13
 0.0000000002     1     1     7    15
 0.0000000001     1     1     7    16
 -0.0000000003     1     1     8     6
 0.0000000002     1     1     8     7
 0.5276118180     1     1     8     8
 -0.0000000001     1     1     8    12
 0.0000000002     1     1     8    13
 0.1004109054     1     1     8    15
 0.1788344464     1     1     8    16
 0.0000000002     1     1     9     6
 0.0000000003     1     1     9     7
 0.5276118180     1     1     9     9
 -0.0000000002     1     1     9    12
 -0.0000000002     1     1     9    13
 0.1788344464     1     1     9    15
 -0.1004109054     1     1     9    16
 -0.0022040129     1     1    10     2
 -0.0220343774     1     1    10     4
 0.0000000003     1     1    10     5
 0.5469675812     1     1    10    10
 0.0000000002     1     1    10    11
 -0.1465352428     1     1    10    14
 -0.0000000001     1     1    10    17
 0.1400210960     1     1    10    18
 0.0848095223     1     1    11     3
 -0.0000000001     1     1    11     4
 0.1621321797     1     1    11     5
 0.0000000002     1     1    11    10
 0.5368532284     1     1    11    11
 -0.0000000001     1     1    11    14
 -0.0235149744     1     1    11    17
 0.0000000003     1     1    11    18
 0.0006310834     1     1    11    19
 0.0001358197     1     1    12     6
 -0.2038660625     1     1    12     7
 -0.0000000001     1     1    12     8
 -0.0000000002     1     1    12     9
 0.5120358748     1     1    12    12
 -0.0000000003     1     1    12    15
 -0.0000000001     1     1    12    16
 -0.2038660625     1     1    13     6
 -0.0001358197     1     1    13     7
 0.0000000002     1     1    13     8
 -0.0000000002     1     1    13     9
 0.5120358748     1     1    13    13
 -0.0000000001     1     1    13    15
 0.0000000003     1     1    13    16
 0.0018216714     1     1    14     2
 0.0000000001     1     1    14     3
 -0.1241583325     1     1    14     4
 -0.0000000002     1     1    14     5
 -0.1465352428     1     1    14    10
 -0.0000000001     1     1    14    11
 0.4659338521     1     1    14    14
 0.0000000003     1     1    14    17
 -0.0275935754     1     1    14    18
 0.0000000002     1     1    15     7
 0.1004109054     1     1    15     8
 0.1788344464     1     1    15     9
 -0.0000000003     1     1    15    12
 -0.0000000001     1     1    15    13
 0.5065417119     1     1    15    15
 -0.0000000002     1     1    16     6
 0.0000000001     1     1    16     7
 0.1788344464     1     1    16     8
 -0.1004109054     1     1    16     9
 -0.0000000001     1     1    16    12
 0.0000000003     1     1    16    13
 0.5065417119     1     1    16    16
 0.1401234540     1     1    17     3
 -0.0000000002     1     1    17     4
 -0.1106837299     1     1    17     5
 -0.0000000001     1     1    17    10
 -0.0235149744     1     1    17    11
 0.0000000003     1     1    17    14
 0.4493651890     1     1    17    17
 0.0000000001     1     1    17    18
 0.0001569709     1     1    17    19
 -0.0017163846     1     1    18     2
 0.0000000001     1     1    18     3
 -0.1048515536     1     1    18     4
 0.0000000001     1     1    18     5
 0.1400210960     1     1    18    10
 0.0000000003     1     1    18    11
 -0.0275935754     1     1    18    14
 0.0000000001     1     1    18    17
 0.4916281770     1     1    18    18
 0.0000000001     1     1    18    19
 0.0079542843     1     1    19     3
 0.0214144532     1     1    19     5
 0.0006310834     1     1    19    11
 0.0001569709     1     1    19    17
 0.0000000001     1     1    19    18
 0.4781946338     1     1    19    19
 -0.1859884786     1     2     2     1
 -0.0000440107     1     2     2     3
 -0.0021519421     1     2     2     5
 -0.0022245276     1     2     2    11
 0.0012589855     1     2     2    17
 -0.0002579426     1     2     2    19
 0.3662014231     1     2     3     4
 -0.0231170325     1     2     3    10
 -0.1072373537     1     2     3    14
 -0.1116371916     1     2     3    18
 0.0001319369     1     2     4     1
 0.3662015721     1     2     4     3
 -0.0503575838     1     2     4     5
 0.0831924106     1     2     4    11
 0.1449722863     1     2     4    17
 0.0014144036     1     2     4    19
 -0.0503618876     1     2     5     4
 -0.3313708079     1     2     5    10
 0.1416827758     1     2     5    14
 -0.1041268248     1     2     5    18
 0.0000000001     1     2     6     6
 0.0000000001     1     2     6     7
 0.2508502000     1     2     6     8
 -0.2313496509     1     2     6     9
 -0.0448046896     1     2     6    15
 0.1884921827     1     2     6    16
 0.0000000001     1     2     7     6
 -0.0000000001     1     2     7     7
 -0.2313496509     1     2     7     8
 -0.2508502000     1     2     7     9
 -0.1884921827     1     2     7    15
 -0.0448046896     1     2     7    16
 0.2508295941     1     2     8     6
 -0.2313306468     1     2     8     7
 0.0000000001     1     2     8     8
 0.0000000001     1     2     8     9
 0.1413716294     1     2     8    12
 -0.1530831291     1     2     8    13
 -0.2313306468     1     2     9     6
 -0.2508295941     1     2     9     7
 0.0000000001     1     2     9     8
 -0.0000000001     1     2     9     9
 0.1530831291     1     2     9    12
 0.1413716294     1     2     9    13
 0.0022040129     1     2    10     1
 -0.0231134670     1     2    10     3
 -0.3313151236     1     2    10     5
 -0.2250137077     1     2    10    11
 0.0799891008     1     2    10    17
 0.0114773835     1     2    10    19
 0.0831901066     1     2    11     4
 -0.2250771332     1     2    11    10
 0.1160640242     1     2    11    14
 -0.2695472431     1     2    11    18
 0.1413935522     1     2    12     8
 0.1531068680     1     2    12     9
 0.3205078583     1     2    12    15
 0.0764105135     1     2    12    16
 -0.1531068680     1     2    13     8
 0.1413935522     1     2    13     9
 0.0764105135     1     2    13    15
 -0.3205078583     1     2    13    16
 -0.0018216714     1     2    14     1
 -0.1072403091     1     2    14     3
 0.1416377402     1     2    14     5
 0.1160138543     1     2    14    11
 -0.2919567592     1     2    14    17
 0.0163607606     1     2    14    19
 -0.0447970160     1     2    15     6
 -0.1884598999     1     2    15     7
 0.3204704515     1     2    15    12
 0.0764015955     1     2    15    13
 0.1884598999     1     2    16     6
 -0.0447970160     1     2    16     7
 0.0764015955     1     2    16    12
 -0.3204704515     1     2    16    13
 0.1449738209     1     2    17     4
 0.0800236838     1     2    17    10
 -0.2919841640     1     2    17    14
 -0.0504293967     1     2    17    18
 0.0017163846     1     2    18     1
 -0.1116340279     1     2    18     3
 -0.1040816514     1     2    18     5
 -0.2694975086     1     2    18    11
 -0.0504563227     1     2    18    17
 -0.0644367951     1     2    18    19
 0.0014139403     1     2    19     4
 0.0114679558     1     2    19    10
 0.0163685478     1     2    19    14
 -0.0644440754     1     2    19    18
 0.0000440107     1     3     2     2
 -0.0000000855     1     3     2     4
 -0.0000035022     1     3     2    10
 0.0000026334     1     3     2    14
 -0.0000026302     1     3     2    18
 -0.5497246984     1     3     3     1
 -0.0013259785     1     3     3     5
 -0.0018318065     1     3     3    11
 0.0003458400     1     3     3    17
 -0.0001874603     1     3     3    19
 0.0000000004     1     3     4     1
 -0.3662015721     1     3     4     2
 -0.0001494101     1     3     4     4
 -0.0020696557     1     3     4    10
 0.0021494003     1     3     4    14
 -0.0011540973     1     3     4    18
 -0.0019341421     1     3     5     1
 -0.0174524350     1     3     5     5
 -0.0198242054     1     3     5    11
 0.0112421568     1     3     5    17
 -0.0010201443     1     3     5    19
 -0.0185308634     1     3     6     6
 -0.0000151684     1     3     6    12
 0.0227679408     1     3     6    13
 -0.0185308634     1     3     7     7
 0.0227679408     1     3     7    12
 0.0000151684     1     3     7    13
 -0.0183649707     1     3     8     8
 -0.0108792752     1     3     8    15
 -0.0193762734     1     3     8    16
 -0.0183649707     1     3     9     9
 -0.0193762734     1     3     9    15
 0.0108792752     1     3     9    16
 0.0231134670     1     3    10     2
 -0.0012396585     1     3    10     4
 -0.0192125984     1     3    10    10
 0.0165598385     1     3    10    14
 -0.0152343427     1     3    10    18
 -0.0848095223     1     3    11     1
 -0.0135225649     1     3    11     5
 -0.0159782435     1     3    11    11
 0.0087713888     1     3    11    17
 -0.0006354280     1     3    11    19
 -0.0000103112     1     3    12     6
 0.0154772018     1     3    12     7
 -0.0197182109     1     3    12    12
 0.0154772018     1     3    13     6
 0.0000103112     1     3    13     7
 -0.0197182109     1     3    13    13
 -0.0000000001     1     3    14     1
 0.1072403091     1     3    14     2
 0.0007399099     1     3    14     4
 0.0116155314     1     3    14    10
 -0.0107490882     1     3    14    14
 0.0092332127     1     3    14    18
 -0.0075634061     1     3    15     8
 -0.0134706240     1     3    15     9
 -0.0193887934     1     3    15    15
 -0.0134706240     1     3    16     8
 0.0075634061     1     3    16     9
 -0.0193887934     1     3    16    16
 -0.1401234540     1     3    17     1
 0.0072620875     1     3    17     5
 0.0082705441     1     3    17    11
 -0.0053694503     1     3    17    17
 0.0003986735     1     3    17    19
 -0.0000000001     1     3    18     1
 0.1116340279     1     3    18     2
 -0.0006088725     1     3    18     4
 -0.0101602986     1     3    18    10
 0.0088362589     1     3    18    14
 -0.0087712150     1     3    18    18
 -0.0079542843     1     3    19     1
 -0.0006981994     1     3    19     5
 -0.0007393886     1     3    19    11
 0.0004847557     1     3    19    17
 -0.0027826014     1     3    19    19
 0.0001319369     1     4     2     1
 0.0000000855     1     4     2     3
 0.0000037259     1     4     2     5
 0.0000026306     1     4     2    11
 -0.0000017043     1     4     2    17
 0.0000006019     1     4     2    19
 0.0000000004     1     4     3     1
 -0.3662014231     1     4     3     2
 -0.0008515123     1     4     3    10
 0.0014171655     1     4     3    14
 -0.0005503270     1     4     3    18
 -0.5548900404     1     4     4     1
 0.0001494101     1     4     4     3
 0.0000611905     1     4     4     5
 0.0001265681     1     4     4    11
 -0.0007374770     1     4     4    17
 -0.0000200320     1     4     4    19
 -0.0000000001     1     4     5     1
 0.0503618876     1     4     5     2
 0.0184364307     1     4     5    10
 -0.0155172228     1     4     5    14
 0.0150841231     1     4     5    18
 -0.0136100748     1     4     6     8
 0.0125520572     1     4     6     9
 0.0052228820     1     4     6    15
 -0.0219725312     1     4     6    16
 0.0125520572     1     4     7     8
 0.0136100748     1     4     7     9
 0.0219725312     1     4     7    15
 0.0052228820     1     4     7    16
 -0.0134702635     1     4     8     6
 0.0124231145     1     4     8     7
 -0.0155861353     1     4     8    12
 0.0168773210     1     4     8    13
 0.0124231145     1     4     9     6
 0.0134702635     1     4     9     7
 -0.0168773210     1     4     9    12
 -0.0155861353     1     4     9    13
 0.0220343774     1     4    10     1
 0.0012396585     1     4    10     3
 0.0182157149     1     4    10     5
 0.0214880042     1     4    10    11
 -0.0112814373     1     4    10    17
 0.0015223959     1     4    10    19
 0.0000000001     1     4    11     1
 -0.0831901066     1     4    11     2
 0.0152856940     1     4    11    10
 -0.0127446353     1     4    11    14
 0.0132290047     1     4    11    18
 -0.0108945880     1     4    12     8
 -0.0117971167     1     4    12     9
 -0.0195467361     1     4    12    15
 -0.0046600297     1     4    12    16
 0.0117971167     1     4    13     8
 -0.0108945880     1     4    13     9
 -0.0046600297     1     4    13    15
 0.0195467361     1     4    13    16
 0.1241583325     1     4    14     1
 -0.0007399099     1     4    14     3
 -0.0107224209     1     4    14     5
 -0.0127492161     1     4    14    11
 0.0069271903     1     4    14    17
 -0.0008873187     1     4    14    19
 0.0035616238     1     4    15     6
 0.0149836602     1     4    15     7
 -0.0191278643     1     4    15    12
 -0.0045601688     1     4    15    13
 -0.0149836602     1     4    16     6
 0.0035616238     1     4    16     7
 -0.0045601688     1     4    16    12
 0.0191278643     1     4    16    13
 0.0000000002     1     4    17     1
 -0.1449738209     1     4    17     2
 -0.0081058679     1     4    17    10
 0.0071793378     1     4    17    14
 -0.0065446184     1     4    17    18
 0.1048515536     1     4    18     1
 0.0006088725     1     4    18     3
 0.0093586666     1     4    18     5
 0.0116592472     1     4    18    11
 -0.0054530953     1     4    18    17
 0.0011236160     1     4    18    19
 -0.0014139403     1     4    19     2
 0.0004678248     1     4    19    10
 -0.0002465010     1     4    19    14
 0.0005790763     1     4    19    18
 0.0021519421     1     5     2     2
 -0.0000037259     1     5     2     4
 -0.0000570264     1     5     2    10
 0.0000449602     1     5     2    14
 -0.0000432918     1     5     2    18
 -0.0019341421     1     5     3     1
 0.0013259785     1     5     3     3
 -0.0064501011     1     5     3    11
 0.0040564445     1     5     3    17
 -0.0003174463     1     5     3    19
 -0.0000000001     1     5     4     1
 0.0503575838     1     5     4     2
 -0.0000611905     1     5     4     4
 0.0003078943     1     5     4    10
 -0.0048881331     1     5     4    14
 0.0058103426     1     5     4    18
 -0.5126082502     1     5     5     1
 0.0174524350     1     5     5     3
 0.0036911585     1     5     5    11
 0.0083601571     1     5     5    17
 0.0077919918     1     5     5    19
 0.0020820539     1     5     6     6
 0.0000007470     1     5     6    12
 -0.0011211765     1     5     6    13
 0.0020820539     1     5     7     7
 -0.0011211765     1     5     7    12
 -0.0000007470     1     5     7    13
 0.0020628634     1     5     8     8
 0.0008486598     1     5     8    15
 0.0015114854     1     5     8    16
 0.0020628634     1     5     9     9
 0.0015114854     1     5     9    15
 -0.0008486598     1     5     9    16
 -0.0000000003     1     5    10     1
 0.3313151236     1     5    10     2
 -0.0182157149     1     5    10     4
 0.0045464746     1     5    10    10
 0.0051599240     1     5    10    14
 0.0102479386     1     5    10    18
 -0.1621321797     1     5    11     1
 0.0135225649     1     5    11     3
 0.0112037543     1     5    11    11
 0.0098148329     1     5    11    17
 0.0044704678     1     5    11    19
 0.0000008291     1     5    12     6
 -0.0012444901     1     5    12     7
 0.0026848616     1     5    12    12
 -0.0012444901     1     5    13     6
 -0.0000008291     1     5    13     7
 0.0026848616     1     5    13    13
 0.0000000002     1     5    14     1
 -0.1416377402     1     5    14     2
 0.0107224209     1     5    14     4
 -0.0020021914     1     5    14    10
 -0.0072325938     1     5    14    14
 -0.0074121815     1     5    14    18
 0.0005666398     1     5    15     8
 0.0010092003     1     5    15     9
 0.0020511437     1     5    15    15
 0.0010092003     1     5    16     8
 -0.0005666398     1     5    16     9
 0.0020511437     1     5    16    16
 0.1106837299     1     5    17     1
 -0.0072620875     1     5    17     3
 -0.0026395782     1     5    17    11
 -0.0063667252     1     5    17    17
 -0.0019669936     1     5    17    19
 -0.0000000001     1     5    18     1
 0.1040816514     1     5    18     2
 -0.0093586666     1     5    18     4
 0.0016667956     1     5    18    10
 0.0062008520     1     5    18    14
 0.0091515116     1     5    18    18
 -0.0214144532     1     5    19     1
 0.0006981994     1     5    19     3
 -0.0050237789     1     5    19    11
 0.0040106025     1     5    19    17
 0.0008521076     1     5    19    19
 0.0000211379     1     6     2     8
 -0.0000194946     1     6     2     9
 -0.0000076320     1     6     2    15
 0.0000321078     1     6     2    16
 -0.0000049865     1     6     3    12
 0.0074847512     1     6     3    13
 -0.0001939441     1     6     4     8
 0.0001788673     1     6     4     9
 0.0016974913     1     6     4    15
 -0.0071413022     1     6     4    16
 -0.0000000845     1     6     5    12
 0.0001269012     1     6     5    13
 -0.5194323345     1     6     6     1
 -0.0000000001     1     6     6     2
 0.0185308634     1     6     6     3
 -0.0020820539     1     6     6     5
 0.0045381437     1     6     6    11
 0.0095449552     1     6     6    17
 -0.0038080096     1     6     6    19
 -0.0000000001     1     6     7     2
 0.0000000003     1     6     8     1
 -0.2508295941     1     6     8     2
 0.0134702635     1     6     8     4
 -0.0020343470     1     6     8    10
 -0.0047537329     1     6     8    14
 -0.0055170275     1     6     8    18
 -0.0000000002     1     6     9     1
 0.2313306468     1     6     9     2
 -0.0124231145     1     6     9     4
 0.0018762013     1     6     9    10
 0.0043841880     1     6     9    14
 0.0050881457     1     6     9    18
 -0.0000290196     1     6    10     8
 0.0000267638     1     6    10     9
 -0.0000691389     1     6    10    15
 0.0002908652     1     6    10    16
 0.0000006502     1     6    11    12
 -0.0009759663     1     6    11    13
 -0.0001358197     1     6    12     1
 0.0000103112     1     6    12     3
 -0.0000008291     1     6    12     5
 0.0000056399     1     6    12    11
 0.0000089436     1     6    12    17
 -0.0000010685     1     6    12    19
 0.2038660625     1     6    13     1
 -0.0154772018     1     6    13     3
 0.0012444901     1     6    13     5
 -0.0084654891     1     6    13    11
 -0.0134243980     1     6    13    17
 0.0016037358     1     6    13    19
 0.0000207744     1     6    14     8
 -0.0000191594     1     6    14     9
 0.0003188470     1     6    14    15
 -0.0013413810     1     6    14    16
 0.0447970160     1     6    15     2
 -0.0035616238     1     6    15     4
 0.0003664523     1     6    15    10
 0.0025125742     1     6    15    14
 0.0025576785     1     6    15    18
 0.0000000002     1     6    16     1
 -0.1884598999     1     6    16     2
 0.0149836602     1     6    16     4
 -0.0015416553     1     6    16    10
 -0.0105703354     1     6    16    14
 -0.0107600883     1     6    16    18
 0.0000013797     1     6    17    12
 -0.0020709156     1     6    17    13
 0.0001430324     1     6    18     8
 -0.0001319134     1     6    18     9
 0.0005859706     1     6    18    15
 -0.0024651634     1     6    18    16
 0.0000022127     1     6    19    12
 -0.0033212968     1     6    19    13
 -0.0000194946     1     7     2     8
 -0.0000211379     1     7     2     9
 -0.0000321078     1     7     2    15
 -0.0000076320     1     7     2    16
 0.0074847512     1     7     3    12
 0.0000049865     1     7     3    13
 0.0001788673     1     7     4     8
 0.0001939441     1     7     4     9
 0.0071413022     1     7     4    15
 0.0016974913     1     7     4    16
 0.0001269012     1     7     5    12
 0.0000000845     1     7     5    13
 -0.0000000001     1     7     6     2
 -0.5194323345     1     7     7     1
 0.0000000001     1     7     7     2
 0.0185308634     1     7     7     3
 -0.0020820539     1     7     7     5
 0.0045381437     1     7     7    11
 0.0095449552     1     7     7    17
 -0.0038080096     1     7     7    19
 -0.0000000002     1     7     8     1
 0.2313306468     1     7     8     2
 -0.0124231145     1     7     8     4
 0.0018762013     1     7     8    10
 0.0043841880     1     7     8    14
 0.0050881457     1     7     8    18
 -0.0000000003     1     7     9     1
 0.2508295941     1     7     9     2
 -0.0134702635     1     7     9     4
 0.0020343470     1     7     9    10
 0.0047537329     1     7     9    14
 0.0055170275     1     7     9    18
 0.0000267638     1     7    10     8
 0.0000290196     1     7    10     9
 -0.0002908652     1     7    10    15
 -0.0000691389     1     7    10    16
 -0.0009759663     1     7    11    12
 -0.0000006502     1     7    11    13
 0.2038660625     1     7    12     1
 -0.0154772018     1     7    12     3
 0.0012444901     1     7    12     5
 -0.0084654891     1     7    12    11
 -0.0134243980     1     7    12    17
 0.0016037358     1     7    12    19
 0.0001358197     1     7    13     1
 -0.0000103112     1     7    13     3
 0.0000008291     1     7    13     5
 -0.0000056399     1     7    13    11
 -0.0000089436     1     7    13    17
 0.0000010685     1     7    13    19
 -0.0000191594     1     7    14     8
 -0.0000207744     1     7    14     9
 0.0013413810     1     7    14    15
 0.0003188470     1     7    14    16
 -0.0000000002     1     7    15     1
 0.1884598999     1     7    15     2
 -0.0149836602     1     7    15     4
 0.0015416553     1     7    15    10
 0.0105703354     1     7    15    14
 0.0107600883     1     7    15    18
 -0.0000000001     1     7    16     1
 0.0447970160     1     7    16     2
 -0.0035616238     1     7    16     4
 0.0003664523     1     7    16    10
 0.0025125742     1     7    16    14
 0.0025576785     1     7    16    18
 -0.0020709156     1     7    17    12
 -0.0000013797     1     7    17    13
 -0.0001319134     1     7    18     8
 -0.0001430324     1     7    18     9
 0.0024651634     1     7    18    15
 0.0005859706     1     7    18    16
 -0.0033212968     1     7    19    12
 -0.0000022127     1     7    19    13
 -0.0000211379     1     8     2     6
 0.0000194946     1     8     2     7
 -0.0000226632     1     8     2    12
 0.0000245406     1     8     2    13
 -0.0031190663     1     8     3    15
 -0.0055551387     1     8     3    16
 0.0001939441     1     8     4     6
 -0.0001788673     1     8     4     7
 -0.0044498410     1     8     4    12
 0.0048184744     1     8     4    13
 0.0002538739     1     8     5    15
 0.0004521560     1     8     5    16
 0.0000000003     1     8     6     1
 -0.2508502000     1     8     6     2
 0.0136100748     1     8     6     4
 -0.0020465685     1     8     6    10
 -0.0047829961     1     8     6    14
 -0.0057094163     1     8     6    18
 -0.0000000002     1     8     7     1
 0.2313496509     1     8     7     2
 -0.0125520572     1     8     7     4
 0.0018874727     1     8     7    10
 0.0044111764     1     8     7    14
 0.0052655787     1     8     7    18
 -0.5276118180     1     8     8     1
 -0.0000000001     1     8     8     2
 0.0183649707     1     8     8     3
 -0.0020628634     1     8     8     5
 0.0052709656     1     8     8    11
 0.0098758884     1     8     8    17
 -0.0039400123     1     8     8    19
 -0.0000000001     1     8     9     2
 0.0000290196     1     8    10     6
 -0.0000267638     1     8    10     7
 0.0003879705     1     8    10    12
 -0.0004201107     1     8    10    13
 0.0001535734     1     8    11    15
 0.0002735183     1     8    11    16
 0.0000000001     1     8    12     1
 -0.1413935522     1     8    12     2
 0.0108945880     1     8    12     4
 -0.0011862266     1     8    12    10
 -0.0071916600     1     8    12    14
 -0.0075315766     1     8    12    18
 -0.0000000002     1     8    13     1
 0.1531068680     1     8    13     2
 -0.0117971167     1     8    13     4
 0.0012844959     1     8    13    10
 0.0077874310     1     8    13    14
 0.0081555069     1     8    13    18
 -0.0000207744     1     8    14     6
 0.0000191594     1     8    14     7
 -0.0008303064     1     8    14    12
 0.0008990906     1     8    14    13
 -0.1004109054     1     8    15     1
 0.0075634061     1     8    15     3
 -0.0005666398     1     8    15     5
 0.0038038855     1     8    15    11
 0.0066445652     1     8    15    17
 -0.0007604344     1     8    15    19
 -0.1788344464     1     8    16     1
 0.0134706240     1     8    16     3
 -0.0010092003     1     8    16     5
 0.0067748196     1     8    16    11
 0.0118341442     1     8    16    17
 -0.0013543536     1     8    16    19
 0.0007673085     1     8    17    15
 0.0013665966     1     8    17    16
 -0.0001430324     1     8    18     6
 0.0001319134     1     8    18     7
 -0.0015439761     1     8    18    12
 0.0016718820     1     8    18    13
 0.0016742160     1     8    19    15
 0.0029818225     1     8    19    16
 0.0000194946     1     9     2     6
 0.0000211379     1     9     2     7
 -0.0000245406     1     9     2    12
 -0.0000226632     1     9     2    13
 -0.0055551387     1     9     3    15
 0.0031190663     1     9     3    16
 -0.0001788673     1     9     4     6
 -0.0001939441     1     9     4     7
 -0.0048184744     1     9     4    12
 -0.0044498410     1     9     4    13
 0.0004521560     1     9     5    15
 -0.0002538739     1     9     5    16
 -0.0000000002     1     9     6     1
 0.2313496509     1     9     6     2
 -0.0125520572     1     9     6     4
 0.0018874727     1     9     6    10
 0.0044111764     1     9     6    14
 0.0052655787     1     9     6    18
 -0.0000000003     1     9     7     1
 0.2508502000     1     9     7     2
 -0.0136100748     1     9     7     4
 0.0020465685     1     9     7    10
 0.0047829961     1     9     7    14
 0.0057094163     1     9     7    18
 -0.0000000001     1     9     8     2
 -0.5276118180     1     9     9     1
 0.0000000001     1     9     9     2
 0.0183649707     1     9     9     3
 -0.0020628634     1     9     9     5
 0.0052709656     1     9     9    11
 0.0098758884     1     9     9    17
 -0.0039400123     1     9     9    19
 -0.0000267638     1     9    10     6
 -0.0000290196     1     9    10     7
 0.0004201107     1     9    10    12
 0.0003879705     1     9    10    13
 0.0002735183     1     9    11    15
 -0.0001535734     1     9    11    16
 0.0000000002     1     9    12     1
 -0.1531068680     1     9    12     2
 0.0117971167     1     9    12     4
 -0.0012844959     1     9    12    10
 -0.0077874310     1     9    12    14
 -0.0081555069     1     9    12    18
 0.0000000002     1     9    13     1
 -0.1413935522     1     9    13     2
 0.0108945880     1     9    13     4
 -0.0011862266     1     9    13    10
 -0.0071916600     1     9    13    14
 -0.0075315766     1     9    13    18
 0.0000191594     1     9    14     6
 0.0000207744     1     9    14     7
 -0.0008990906     1     9    14    12
 -0.0008303064     1     9    14    13
 -0.1788344464     1     9    15     1
 0.0134706240     1     9    15     3
 -0.0010092003     1     9    15     5
 0.0067748196     1     9    15    11
 0.0118341442     1     9    15    17
 -0.0013543536     1     9    15    19
 0.1004109054     1     9    16     1
 -0.0075634061     1     9    16     3
 0.0005666398     1     9    16     5
 -0.0038038855     1     9    16    11
 -0.0066445652     1     9    16    17
 0.0007604344     1     9    16    19
 0.0013665966     1     9    17    15
 -0.0007673085     1     9    17    16
 0.0001319134     1     9    18     6
 0.0001430324     1     9    18     7
 -0.0016718820     1     9    18    12
 -0.0015439761     1     9    18    13
 0.0029818225     1     9    19    15
 -0.0016742160     1     9    19    16
 0.0022040129     1    10     2     1
 0.0000035022     1    10     2     3
 0.0000570264     1    10     2     5
 0.0000672101     1    10     2    11
 -0.0000358240     1    10     2    17
 0.0000095982     1    10     2    19
 0.0231170325     1    10     3     2
 0.0008515123     1    10     3     4
 0.0046970006     1    10     3    14
 -0.0047721781     1    10     3    18
 0.0220343774     1    10     4     1
 0.0020696557     1    10     4     3
 -0.0003078943     1    10     4     5
 0.0060104242     1    10     4    11
 -0.0030498946     1    10     4    17