&FCI NORB= 19,NELEC= 14,MS2=0,
 ORBSYM=1,1,1,1,1,1,1,1,1,1,1,1,1,1,1,1,1,1,1
 ISYM=1,
&END
 0.3224114065     1     1     2     2
 0.0000000001     1     1     2     3
 -0.0018068737     1     1     2     4
 -0.0000000001     1     1     2     5
 0.0067196772     1     1     2    10
 -0.0070308727     1     1     2    11
 0.0000000001     1     1     2    14
 -0.0019047686     1     1     2    18
 0.0000000001     1     1     3     2
 0.6307457781     1     1     3     3
 -0.0000000081     1     1     3     4
 -0.0371603300     1     1     3     5
 -0.0000000041     1     1     3    10
 -0.0000000004     1     1     3    11
 -0.0951412351     1     1     3    14
 0.1290010149     1     1     3    17
 0.0000000036     1     1     3    18
 -0.0018068737     1     1     4     2
 -0.0000000081     1     1     4     3
 0.6089072041     1     1     4     4
 -0.0000000054     1     1     4     5
 0.0609466134     1     1     4    10
 0.1126296517     1     1     4    11
 0.0000000045     1     1     4    14
 -0.0000000021     1     1     4    17
 -0.1207083809     1     1     4    18
 -0.0000000001     1     1     5     2
 -0.0371603300     1     1     5     3
 -0.0000000054     1     1     5     4
 0.6163655865     1     1     5     5
 0.0000000076     1     1     5    10
 -0.0000000060     1     1     5    11
 -0.1695602606     1     1     5    14
 -0.1089564940     1     1     5    17
 -0.0000000002     1     1     5    18
 0.5749817263     1     1     6     6
 0.0001038279     1     1     6     7
 -0.0000000079     1     1     6     8
 0.0000000032     1     1     6     9
 0.2067749840     1     1     6    12
 0.0118330952     1     1     6    13
 0.0000000039     1     1     6    15
 -0.0000000034     1     1     6    16
 -0.0055399151     1     1     6    19
 0.0001038279     1     1     7     6
 0.5755388405     1     1     7     7
 -0.0000000032     1     1     7     8
 -0.0000000079     1     1     7     9
 -0.0118706005     1     1     7    12
 0.2066535294     1     1     7    13
 0.0000000034     1     1     7    15
 0.0000000039     1     1     7    16
 -0.0307246960     1     1     7    19
 -0.0000000079     1     1     8     6
 -0.0000000032     1     1     8     7
 0.5912534096     1     1     8     8
 -0.0000268360     1     1     8     9
 -0.0000000058     1     1     8    12
 -0.0000000027     1     1     8    13
 -0.2068681909     1     1     8    15
 0.0736050347     1     1     8    16
 -0.0000000009     1     1     8    19
 0.0000000032     1     1     9     6
 -0.0000000079     1     1     9     7
 -0.0000268360     1     1     9     8
 0.5912272797     1     1     9     9
 0.0000000027     1     1     9    12
 -0.0000000058     1     1     9    13
 -0.0736772324     1     1     9    15
 -0.2068762438     1     1     9    16
 -0.0000000014     1     1     9    19
 0.0067196772     1     1    10     2
 -0.0000000041     1     1    10     3
 0.0609466134     1     1    10     4
 0.0000000076     1     1    10     5
 0.6346342332     1     1    10    10
 -0.1985403671     1     1    10    11
 -0.0000000013     1     1    10    14
 -0.0000000042     1     1    10    17
 -0.1108454867     1     1    10    18
 -0.0070308727     1     1    11     2
 -0.0000000004     1     1    11     3
 0.1126296517     1     1    11     4
 -0.0000000060     1     1    11     5
 -0.1985403671     1     1    11    10
 0.5228607495     1     1    11    11
 0.0000000074     1     1    11    14
 0.0000000034     1     1    11    17
 0.0035475131     1     1    11    18
 0.2067749840     1     1    12     6
 -0.0118706005     1     1    12     7
 -0.0000000058     1     1    12     8
 0.0000000027     1     1    12     9
 0.5803301102     1     1    12    12
 -0.0000019433     1     1    12    13
 0.0000000060     1     1    12    15
 -0.0000000059     1     1    12    16
 0.0022753061     1     1    12    19
 0.0118330952     1     1    13     6
 0.2066535294     1     1    13     7
 -0.0000000027     1     1    13     8
 -0.0000000058     1     1    13     9
 -0.0000019433     1     1    13    12
 0.5803143811     1     1    13    13
 0.0000000059     1     1    13    15
 0.0000000060     1     1    13    16
 0.0186936447     1     1    13    19
 0.0000000001     1     1    14     2
 -0.0951412351     1     1    14     3
 0.0000000045     1     1    14     4
 -0.1695602606     1     1    14     5
 -0.0000000013     1     1    14    10
 0.0000000074     1     1    14    11
 0.4885410499     1     1    14    14
 0.0053823520     1     1    14    17
 -0.0000000029     1     1    14    18
 0.0000000039     1     1    15     6
 0.0000000034     1     1    15     7
 -0.2068681909     1     1    15     8
 -0.0736772324     1     1    15     9
 0.0000000060     1     1    15    12
 0.0000000059     1     1    15    13
 0.5451133183     1     1    15    15
 0.0000125934     1     1    15    16
 -0.0000000006     1     1    15    19
 -0.0000000034     1     1    16     6
 0.0000000039     1     1    16     7
 0.0736050347     1     1    16     8
 -0.2068762438     1     1    16     9
 -0.0000000059     1     1    16    12
 0.0000000060     1     1    16    13
 0.0000125934     1     1    16    15
 0.5451073969     1     1    16    16
 -0.0000000004     1     1    16    19
 0.1290010149     1     1    17     3
 -0.0000000021     1     1    17     4
 -0.1089564940     1     1    17     5
 -0.0000000042     1     1    17    10
 0.0000000034     1     1    17    11
 0.0053823520     1     1    17    14
 0.5513511108     1     1    17    17
 0.0000000052     1     1    17    18
 -0.0019047686     1     1    18     2
 0.0000000036     1     1    18     3
 -0.1207083809     1     1    18     4
 -0.0000000002     1     1    18     5
 -0.1108454867     1     1    18    10
 0.0035475131     1     1    18    11
 -0.0000000029     1     1    18    14
 0.0000000052     1     1    18    17
 0.4911475520     1     1    18    18
 -0.0055399151     1     1    19     6
 -0.0307246960     1     1    19     7
 -0.0000000009     1     1    19     8
 -0.0000000014     1     1    19     9
 0.0022753061     1     1    19    12
 0.0186936447     1     1    19    13
 -0.0000000006     1     1    19    15
 -0.0000000004     1     1    19    16
 0.5419148349     1     1    19    19
 -0.3224114065     1     2     2     1
 -0.0017345912     1     2     2     3
 -0.0000000001     1     2     2     4
 0.0070888651     1     2     2     5
 0.0000000001     1     2     2    10
 -0.0000000001     1     2     2    11
 -0.0047886789     1     2     2    14
 -0.0052007669     1     2     2    17
 -0.0000000001     1     2     3     1
 0.2674684274     1     2     3     4
 0.1356516559     1     2     3    10
 0.0116477406     1     2     3    11
 -0.1210095074     1     2     3    18
 0.0018068737     1     2     4     1
 0.2674917025     1     2     4     3
 0.1756631120     1     2     4     5
 -0.1472120624     1     2     4    14
 0.0711791211     1     2     4    17
 0.0000000001     1     2     5     1
 0.1757447722     1     2     5     4
 -0.2499862900     1     2     5    10
 0.1981683953     1     2     5    11
 0.0088381703     1     2     5    18
 0.2586150160     1     2     6     8
 -0.1034960968     1     2     6     9
 -0.1280308596     1     2     6    15
 0.1127687083     1     2     6    16
 0.1032809021     1     2     7     8
 0.2583780356     1     2     7     9
 -0.1130769765     1     2     7    15
 -0.1281959020     1     2     7    16
 0.2584912892     1     2     8     6
 0.1032289301     1     2     8     7
 0.1906922455     1     2     8    12
 0.0892955665     1     2     8    13
 0.0292735485     1     2     8    19
 -0.1034475768     1     2     9     6
 0.2582505074     1     2     9     7
 -0.0892369534     1     2     9    12
 0.1907647295     1     2     9    13
 0.0468100928     1     2     9    19
 -0.0067196772     1     2    10     1
 0.1355805547     1     2    10     3
 -0.2496937706     1     2    10     5
 0.0413705691     1     2    10    14
 0.1394366487     1     2    10    17
 0.0070308727     1     2    11     1
 0.0117266982     1     2    11     3
 0.1978558552     1     2    11     5
 -0.2453197580     1     2    11    14
 -0.1105746031     1     2    11    17
 0.1908326812     1     2    12     8
 -0.0893012554     1     2    12     9
 -0.1991097149     1     2    12    15
 0.1968620766     1     2    12    16
 0.0893666386     1     2    13     8
 0.1909135376     1     2    13     9
 -0.1968807493     1     2    13    15
 -0.1991211331     1     2    13    16
 -0.0000000001     1     2    14     1
 -0.1472700053     1     2    14     4
 0.0415715147     1     2    14    10
 -0.2455329898     1     2    14    11
 0.0939194429     1     2    14    18
 -0.1279150268     1     2    15     6
 -0.1129699925     1     2    15     7
 -0.1989811395     1     2    15    12
 -0.1967456522     1     2    15    13
 0.0188885729     1     2    15    19
 0.1126683628     1     2    16     6
 -0.1280765151     1     2    16     7
 0.1967369143     1     2    16    12
 -0.1989864825     1     2    16    13
 0.0149628682     1     2    16    19
 0.0711089163     1     2    17     4
 0.1396593940     1     2    17    10
 -0.1108141875     1     2    17    11
 -0.1719888645     1     2    17    18
 0.0019047686     1     2    18     1
 -0.1209937585     1     2    18     3
 0.0087602257     1     2    18     5
 0.0939721295     1     2    18    14
 -0.1719327842     1     2    18    17
 0.0292611017     1     2    19     8
 0.0467901896     1     2    19     9
 0.0189092151     1     2    19    15
 0.0149792202     1     2    19    16
 -0.0000000001     1     3     2     1
 0.0017345912     1     3     2     2
 -0.0000234396     1     3     2     4
 0.0000736264     1     3     2    10
 -0.0000803220     1     3     2    11
 -0.0000179330     1     3     2    18
 -0.6307457781     1     3     3     1
 -0.0000000001     1     3     3     4
 0.0086401722     1     3     3     5
 0.0000000001     1     3     3    10
 -0.0000000002     1     3     3    11
 -0.0073562525     1     3     3    14
 -0.0077270487     1     3     3    17
 -0.0000000001     1     3     3    18
 0.0000000081     1     3     4     1
 -0.2674917025     1     3     4     2
 -0.0027057620     1     3     4     4
 0.0000000001     1     3     4     5
 0.0068680152     1     3     4    10
 -0.0071696076     1     3     4    11
 -0.0000000001     1     3     4    14
 -0.0000000001     1     3     4    17
 -0.0006622256     1     3     4    18
 0.0371603300     1     3     5     1
 0.0000000001     1     3     5     4
 -0.0210536106     1     3     5     5
 -0.0000000003     1     3     5    10
 0.0000000003     1     3     5    11
 0.0167726097     1     3     5    14
 0.0133625042     1     3     5    17
 0.0000000001     1     3     5    18
 -0.0165781528     1     3     6     6
 0.0000052094     1     3     6     7
 0.0000000003     1     3     6     8
 -0.0000000001     1     3     6     9
 -0.0225621190     1     3     6    12
 -0.0013067020     1     3     6    13
 -0.0000000003     1     3     6    15
 0.0000000003     1     3     6    16
 -0.0003571445     1     3     6    19
 0.0000052094     1     3     7     6
 -0.0165502004     1     3     7     7
 0.0000000001     1     3     7     8
 0.0000000003     1     3     7     9
 0.0012845788     1     3     7    12
 -0.0226337614     1     3     7    13
 -0.0000000003     1     3     7    15
 -0.0000000003     1     3     7    16
 -0.0019807444     1     3     7    19
 0.0000000003     1     3     8     6
 0.0000000001     1     3     8     7
 -0.0172862358     1     3     8     8
 -0.0000101676     1     3     8     9
 0.0000000003     1     3     8    12
 0.0000000001     1     3     8    13
 0.0189881471     1     3     8    15
 -0.0067444095     1     3     8    16
 -0.0000000001     1     3     9     6
 0.0000000003     1     3     9     7
 -0.0000101676     1     3     9     8
 -0.0172961359     1     3     9     9
 -0.0000000001     1     3     9    12
 0.0000000003     1     3     9    13
 0.0067753948     1     3     9    15
 0.0189916033     1     3     9    16
 0.0000000041     1     3    10     1
 -0.1355805547     1     3    10     2
 0.0077896858     1     3    10     4
 -0.0000000003     1     3    10     5
 -0.0144638090     1     3    10    10
 0.0181312146     1     3    10    11
 0.0000000002     1     3    10    14
 0.0000000002     1     3    10    17
 0.0018844847     1     3    10    18
 0.0000000004     1     3    11     1
 -0.0117266982     1     3    11     2
 -0.0066255916     1     3    11     4
 0.0000000002     1     3    11     5
 0.0127574692     1     3    11    10
 -0.0173232562     1     3    11    11
 -0.0000000002     1     3    11    14
 -0.0000000001     1     3    11    17
 -0.0013742937     1     3    11    18
 -0.0141655031     1     3    12     6
 0.0008103726     1     3    12     7
 0.0000000002     1     3    12     8
 -0.0000000001     1     3    12     9
 -0.0189204043     1     3    12    12
 -0.0000037343     1     3    12    13
 -0.0000000002     1     3    12    15
 0.0000000002     1     3    12    16
 -0.0001692133     1     3    12    19
 -0.0008147901     1     3    13     6
 -0.0141798084     1     3    13     7
 0.0000000001     1     3    13     8
 0.0000000002     1     3    13     9
 -0.0000037343     1     3    13    12
 -0.0189506297     1     3    13    13
 -0.0000000002     1     3    13    15
 -0.0000000002     1     3    13    16
 -0.0013902364     1     3    13    19
 0.0951412351     1     3    14     1
 0.0093198728     1     3    14     5
 0.0000000001     1     3    14    10
 -0.0000000001     1     3    14    11
 -0.0088482206     1     3    14    14
 -0.0057356332     1     3    14    17
 -0.0000000002     1     3    15     6
 -0.0000000002     1     3    15     7
 0.0136305258     1     3    15     8
 0.0048560951     1     3    15     9
 -0.0000000002     1     3    15    12
 -0.0000000002     1     3    15    13
 -0.0175457908     1     3    15    15
 -0.0000026328     1     3    15    16
 0.0000000002     1     3    16     6
 -0.0000000002     1     3    16     7
 -0.0048484350     1     3    16     8
 0.0136313802     1     3    16     9
 0.0000000002     1     3    16    12
 -0.0000000002     1     3    16    13
 -0.0000026328     1     3    16    15
 -0.0175445528     1     3    16    16
 -0.1290010149     1     3    17     1
 -0.0000000001     1     3    17     4
 0.0099294656     1     3    17     5
 0.0000000002     1     3    17    10
 -0.0000000001     1     3    17    11
 -0.0090141682     1     3    17    14
 -0.0063342610     1     3    17    17
 -0.0000000001     1     3    17    18
 -0.0000000036     1     3    18     1
 0.1209937585     1     3    18     2
 -0.0014087042     1     3    18     4
 0.0000000001     1     3    18     5
 0.0024800408     1     3    18    10
 -0.0035693915     1     3    18    11
 -0.0000000001     1     3    18    17
 -0.0005024691     1     3    18    18
 -0.0000209368     1     3    19     6
 -0.0001161168     1     3    19     7
 0.0001365355     1     3    19    12
 0.0011217591     1     3    19    13
 -0.0018380517     1     3    19    19
 0.0018068737     1     4     2     1
 0.0000000001     1     4     2     2
 0.0000234396     1     4     2     3
 -0.0000820938     1     4     2     5
 0.0000579241     1     4     2    14
 0.0000693958     1     4     2    17
 0.0000000081     1     4     3     1
 -0.2674684274     1     4     3     2
 0.0000000001     1     4     3     3
 -0.0009046389     1     4     3    10
 -0.0005719237     1     4     3    11
 -0.0000000001     1     4     3    14
 0.0007367956     1     4     3    18
 -0.6089072041     1     4     4     1
 0.0027057620     1     4     4     3
 -0.0023425803     1     4     4     5
 0.0030222342     1     4     4    14
 0.0039366075     1     4     4    17
 0.0000000054     1     4     5     1
 -0.1757447722     1     4     5     2
 -0.0000000001     1     4     5     3
 0.0000000003     1     4     5     5
 0.0204866117     1     4     5    10
 -0.0206065774     1     4     5    11
 -0.0000000002     1     4     5    14
 -0.0000000003     1     4     5    17
 -0.0083945094     1     4     5    18
 0.0000000003     1     4     6     6
 -0.0156217230     1     4     6     8
 0.0062495023     1     4     6     9
 0.0000000003     1     4     6    12
 0.0154942758     1     4     6    15
 -0.0136603529     1     4     6    16
 0.0000000003     1     4     7     7
 -0.0062444122     1     4     7     8
 -0.0156161177     1     4     7     9
 0.0000000003     1     4     7    13
 0.0136480459     1     4     7    15
 0.0154876869     1     4     7    16
 -0.0160734560     1     4     8     6
 -0.0065377073     1     4     8     7
 0.0000000003     1     4     8     8
 -0.0215437207     1     4     8    12
 -0.0102050704     1     4     8    13
 -0.0000000003     1     4     8    15
 0.0000000001     1     4     8    16
 0.0004858647     1     4     8    19
 0.0063864303     1     4     9     6
 -0.0162400477     1     4     9     7
 0.0000000003     1     4     9     9
 0.0100505122     1     4     9    12
 -0.0217348555     1     4     9    13
 -0.0000000001     1     4     9    15
 -0.0000000003     1     4     9    16
 0.0007769257     1     4     9    19
 -0.0609466134     1     4    10     1
 -0.0077896858     1     4    10     3
 0.0173904695     1     4    10     5
 0.0000000003     1     4    10    10
 -0.0000000003     1     4    10    11
 -0.0118707591     1     4    10    14
 -0.0170870391     1     4    10    17
 -0.0000000001     1     4    10    18
 -0.1126296517     1     4    11     1
 0.0066255916     1     4    11     3
 -0.0137759486     1     4    11     5
 -0.0000000003     1     4    11    10
 0.0000000002     1     4    11    11
 0.0080264247     1     4    11    14
 0.0137684191     1     4    11    17
 0.0000000001     1     4    11    18
 0.0000000002     1     4    12     6
 -0.0149557082     1     4    12     8
 0.0069993580     1     4    12     9
 0.0000000003     1     4    12    12
 0.0139628755     1     4    12    15
 -0.0138042874     1     4    12    16
 0.0000000002     1     4    13     7
 -0.0070009307     1     4    13     8
 -0.0149576531     1     4    13     9
 0.0000000003     1     4    13    13
 0.0138104983     1     4    13    15
 0.0139666734     1     4    13    16
 -0.0000000045     1     4    14     1
 0.1472700053     1     4    14     2
 -0.0000000002     1     4    14     5
 -0.0109782425     1     4    14    10
 0.0095443798     1     4    14    11
 0.0000000001     1     4    14    14
 0.0000000001     1     4    14    17
 0.0046992942     1     4    14    18
 0.0106398573     1     4    15     6
 0.0093977665     1     4    15     7
 -0.0000000002     1     4    15     8
 0.0132527440     1     4    15    12
 0.0131393168     1     4    15    13
 0.0000000003     1     4    15    15
 -0.0003120997     1     4    15    19
 -0.0093712862     1     4    16     6
 0.0106540345     1     4    16     7
 -0.0000000002     1     4    16     9
 -0.0130945331     1     4    16    12
 0.0132801288     1     4    16    13
 0.0000000003     1     4    16    16
 -0.0002472344     1     4    16    19
 0.0000000021     1     4    17     1
 -0.0711089163     1     4    17     2
 0.0000000001     1     4    17     3
 -0.0000000002     1     4    17     5
 -0.0099214537     1     4    17    10
 0.0084510214     1     4    17    11
 0.0000000001     1     4    17    14
 0.0000000002     1     4    17    17
 0.0044800953     1     4    17    18
 0.1207083809     1     4    18     1
 0.0014087042     1     4    18     3
 -0.0034366657     1     4    18     5
 -0.0000000001     1     4    18    10
 0.0017231295     1     4    18    14
 0.0032523613     1     4    18    17
 -0.0008058236     1     4    19     8
 -0.0012885586     1     4    19     9
 0.0000000001     1     4    19    13
 0.0022257582     1     4    19    15
 0.0017631679     1     4    19    16
 0.0000000001     1     5     2     1
 -0.0070888651     1     5     2     2
 0.0000820938     1     5     2     4
 -0.0002982759     1     5     2    10
 0.0003142827     1     5     2    11
 0.0000796936     1     5     2    18
 0.0371603300     1     5     3     1
 -0.0086401722     1     5     3     3
 0.0000000001     1     5     3    11
 0.0074877600     1     5     3    14
 0.0034925162     1     5     3    17
 0.0000000054     1     5     4     1
 -0.1756631120     1     5     4     2
 -0.0000000001     1     5     4     3
 0.0023425803     1     5     4     4
 0.0031705259     1     5     4    10
 -0.0069138176     1     5     4    11
 -0.0000000001     1     5     4    17
 -0.0049728677     1     5     4    18
 -0.6163655865     1     5     5     1
 0.0210536106     1     5     5     3
 -0.0000000003     1     5     5     4
 -0.0000000001     1     5     5    10
 -0.0000000001     1     5     5    11
 -0.0060612943     1     5     5    14
 0.0127873443     1     5     5    17
 0.0000000002     1     5     5    18
 -0.0075146491     1     5     6     6
 -0.0000215692     1     5     6     7
 -0.0049450964     1     5     6    12
 -0.0002731490     1     5     6    13
 0.0014039330     1     5     6    19
 -0.0000215692     1     5     7     6
 -0.0076303844     1     5     7     7
 0.0002906503     1     5     7    12
 -0.0048884214     1     5     7    13
 0.0077862955     1     5     7    19
 -0.0068349067     1     5     8     8
 -0.0000064548     1     5     8     9
 0.0000000001     1     5     8    12
 0.0074728788     1     5     8    15
 -0.0026552533     1     5     8    16
 -0.0000000001     1     5     8    19
 -0.0000064548     1     5     9     8
 -0.0068411917     1     5     9     9
 0.0000000001     1     5     9    13
 0.0026654531     1     5     9    15
 0.0074740165     1     5     9    16
 -0.0000000001     1     5     9    19
 -0.0000000076     1     5    10     1
 0.2496937706     1     5    10     2
 0.0000000003     1     5    10     3
 -0.0173904695     1     5    10     4
 -0.0160315379     1     5    10    10
 0.0047612757     1     5    10    11
 0.0000000002     1     5    10    17
 0.0148663355     1     5    10    18
 0.0000000060     1     5    11     1
 -0.1978558552     1     5    11     2
 -0.0000000002     1     5    11     3
 0.0137759486     1     5    11     4
 0.0119891992     1     5    11    10
 0.0007490917     1     5    11    11
 0.0000000002     1     5    11    14
 -0.0000000002     1     5    11    17
 -0.0134133916     1     5    11    18
 -0.0043834914     1     5    12     6
 0.0002409498     1     5    12     7
 -0.0080383013     1     5    12    12
 -0.0000026084     1     5    12    13
 0.0004180575     1     5    12    19
 -0.0002664314     1     5    13     6
 -0.0044660094     1     5    13     7
 -0.0000026084     1     5    13    12
 -0.0080594140     1     5    13    13
 0.0034347113     1     5    13    19
 0.1695602606     1     5    14     1
 -0.0093198728     1     5    14     3
 0.0000000002     1     5    14     4
 0.0000000001     1     5    14    10
 0.0000000001     1     5    14    11
 0.0058576304     1     5    14    14
 -0.0070143594     1     5    14    17
 -0.0000000002     1     5    14    18
 0.0043795736     1     5    15     8
 0.0015590738     1     5    15     9
 -0.0055267228     1     5    15    15
 -0.0000001801     1     5    15    16
 -0.0015589595     1     5    16     8
 0.0043795863     1     5    16     9
 -0.0000001801     1     5    16    15
 -0.0055266381     1     5    16    16
 0.1089564940     1     5    17     1
 -0.0099294656     1     5    17     3
 0.0000000002     1     5    17     4
 0.0000000001     1     5    17    10
 0.0078210258     1     5    17    14
 -0.0107882921     1     5    17    17
 -0.0000000001     1     5    17    18
 0.0000000002     1     5    18     1
 -0.0087602257     1     5    18     2
 -0.0000000001     1     5    18     3
 0.0034366657     1     5    18     4
 0.0034040096     1     5    18    10
 0.0014084643     1     5    18    11
 -0.0052982515     1     5    18    18
 0.0001125672     1     5    19     6
 0.0006243040     1     5    19     7
 -0.0008302262     1     5    19    12
 -0.0068210405     1     5    19    13
 -0.0000000001     1     5    19    15
 -0.0000000001     1     5    19    16
 -0.0040951687     1     5    19    19
 0.0001253926     1     6     2     8
 -0.0000491810     1     6     2     9
 -0.0001168662     1     6     2    15
 0.0001018171     1     6     2    16
 -0.0085827748     1     6     3    12
 -0.0004956398     1     6     3    13
 -0.0000000001     1     6     3    15
 0.0000000001     1     6     3    16
 -0.0003349159     1     6     3    19
 0.0003987277     1     6     4     8
 -0.0001173035     1     6     4     9
 0.0000000001     1     6     4    12
 0.0049536586     1     6     4    15
 -0.0043763607     1     6     4    16
 -0.0000000001     1     6     5     8
 -0.0004937722     1     6     5    12
 -0.0000189339     1     6     5    13
 0.0012954319     1     6     5    19
 -0.5749817263     1     6     6     1
 0.0165781528     1     6     6     3
 -0.0000000003     1     6     6     4
 0.0075146491     1     6     6     5
 -0.0000000001     1     6     6    10
 -0.0000000001     1     6     6    11
 -0.0103203832     1     6     6    14
 0.0012306120     1     6     6    17
 0.0000000001     1     6     6    18
 -0.0001038279     1     6     7     1
 -0.0000052094     1     6     7     3
 0.0000215692     1     6     7     5
 -0.0000110341     1     6     7    14
 -0.0000173384     1     6     7    17
 0.0000000079     1     6     8     1
 -0.2584912892     1     6     8     2
 -0.0000000003     1     6     8     3
 0.0160734560     1     6     8     4
 0.0093778972     1     6     8    10
 0.0007693490     1     6     8    11
 0.0000000001     1     6     8    14
 -0.0000000001     1     6     8    17
 -0.0070406144     1     6     8    18
 -0.0000000032     1     6     9     1
 0.1034475768     1     6     9     2
 0.0000000001     1     6     9     3
 -0.0063864303     1     6     9     4
 -0.0037637017     1     6     9    10
 -0.0002921686     1     6     9    11
 0.0028190393     1     6     9    18
 0.0000058415     1     6    10     8
 -0.0000161685     1     6    10     9
 0.0008837028     1     6    10    15
 -0.0007581192     1     6    10    16
 0.0000887559     1     6    11     8
 -0.0000286632     1     6    11     9
 -0.0000000001     1     6    11    12
 -0.0005660872     1     6    11    15
 0.0004895719     1     6    11    16
 -0.2067749840     1     6    12     1
 0.0141655031     1     6    12     3
 -0.0000000002     1     6    12     4
 0.0043834914     1     6    12     5
 -0.0000000001     1     6    12    10
 -0.0000000001     1     6    12    11
 -0.0121494277     1     6    12    14
 0.0101047941     1     6    12    17
 0.0000000002     1     6    12    18
 -0.0118330952     1     6    13     1
 0.0008147901     1     6    13     3
 0.0002664314     1     6    13     5
 -0.0007010149     1     6    13    14
 0.0005752785     1     6    13    17
 -0.0016988006     1     6    14    12
 -0.0000975817     1     6    14    13
 -0.0002808220     1     6    14    19
 -0.0000000039     1     6    15     1
 0.1279150268     1     6    15     2
 0.0000000002     1     6    15     3
 -0.0106398573     1     6    15     4
 -0.0053537506     1     6    15    10
 -0.0042548748     1     6    15    11
 -0.0000000001     1     6    15    14
 0.0000000001     1     6    15    17
 0.0094219586     1     6    15    18
 0.0000000034     1     6    16     1
 -0.1126683628     1     6    16     2
 -0.0000000002     1     6    16     3
 0.0093712862     1     6    16     4
 0.0047254968     1     6    16    10
 0.0037427919     1     6    16    11
 0.0000000001     1     6    16    14
 -0.0000000001     1     6    16    17
 -0.0083060819     1     6    16    18
 0.0044873652     1     6    17    12
 0.0002682509     1     6    17    13
 0.0000000001     1     6    17    15
 -0.0000000001     1     6    17    16
 -0.0001910081     1     6    17    19
 0.0005213714     1     6    18     8
 -0.0002071232     1     6    18     9
 0.0027566841     1     6    18    15
 -0.0024315518     1     6    18    16
 0.0055399151     1     6    19     1
 0.0000209368     1     6    19     3
 -0.0001125672     1     6    19     5
 0.0007982998     1     6    19    14
 0.0010289774     1     6    19    17
 0.0000526523     1     7     2     8
 0.0001292154     1     7     2     9
 -0.0001063319     1     7     2    15
 -0.0001192833     1     7     2    16
 0.0004896496     1     7     3    12
 -0.0086021731     1     7     3    13
 -0.0000000001     1     7     3    15
 -0.0000000001     1     7     3    16
 -0.0018574633     1     7     3    19
 0.0002680393     1     7     4     8
 0.0005647236     1     7     4     9
 0.0000000001     1     7     4    13
 0.0043382516     1     7     4    15
 0.0049332555     1     7     4    16
 -0.0000000001     1     7     5     9
 0.0000347499     1     7     5    12
 -0.0004425548     1     7     5    13
 0.0071845416     1     7     5    19
 -0.0001038279     1     7     6     1
 -0.0000052094     1     7     6     3
 0.0000215692     1     7     6     5
 -0.0000110341     1     7     6    14
 -0.0000173384     1     7     6    17
 -0.5755388405     1     7     7     1
 0.0165502004     1     7     7     3
 -0.0000000003     1     7     7     4
 0.0076303844     1     7     7     5
 -0.0000000001     1     7     7    10
 -0.0000000001     1     7     7    11
 -0.0103795894     1     7     7    14
 0.0011375782     1     7     7    17
 0.0000000001     1     7     7    18
 0.0000000032     1     7     8     1
 -0.1032289301     1     7     8     2
 -0.0000000001     1     7     8     3
 0.0065377073     1     7     8     4
 0.0037175584     1     7     8    10
 0.0003477166     1     7     8    11
 -0.0028080699     1     7     8    18
 0.0000000079     1     7     9     1
 -0.2582505074     1     7     9     2