&FCI NORB= 10,NELEC=  6,MS2=0,
 ORBSYM=1,1,1,1,1,1,1,1,1,1
 ISYM=1,
&END
 0.2689223815     1     1     2     2
 0.0000000116     1     1     2     3
 0.0000000116     1     1     3     2
 0.2654505288     1     1     3     3
 0.2578756530     1     1     4     4
 0.0000000126     1     1     4     5
 0.0000000126     1     1     5     4
 0.2616772804     1     1     5     5
 0.1893957397     1     1     6     6
 -0.0000000628     1     1     6     9
 0.0071844659     1     1     6    10
 0.1849187956     1     1     7     7
 -0.0000000316     1     1     7     8
 -0.0000000316     1     1     8     7
 0.1751915402     1     1     8     8
 -0.0000000628     1     1     9     6
 0.1750715648     1     1     9     9
 0.0000000046     1     1     9    10
 0.0071844659     1     1    10     6
 0.0000000046     1     1    10     9
 0.1787083743     1     1    10    10
 -0.2689223815     1     2     2     1
 0.0009264550     1     2     2     6
 -0.0000000201     1     2     2     9
 -0.0210470247     1     2     2    10
 -0.0000000116     1     2     3     1
 -0.0000000032     1     2     3     6
 -0.0004021025     1     2     3     9
 -0.0000000059     1     2     3    10
 0.0000000047     1     2     4     7
 -0.0023247339     1     2     4     8
 0.0044611849     1     2     5     7
 -0.0000000022     1     2     5     8
 0.0000000003     1     2     7     4
 0.0002475054     1     2     7     5
 0.0000736999     1     2     8     4
 -0.0000000008     1     2     8     5
 0.0009526678     1     2     9     3
 -0.0000000012     1     2    10     3
 -0.0000000116     1     3     2     1
 -0.0000000032     1     3     2     6
 -0.0015218814     1     3     2     9
 -0.0000000045     1     3     2    10
 -0.2654505288     1     3     3     1
 -0.0010062180     1     3     3     6
 -0.0000000306     1     3     3     9
 -0.0191267465     1     3     3    10
 0.0007635980     1     3     4     7
 -0.0000000147     1     3     4     8
 0.0000000080     1     3     5     7
 -0.0013579380     1     3     5     8
 0.0002193777     1     3     7     4
 -0.0000000002     1     3     7     5
 -0.0000000008     1     3     8     4
 -0.0000984375     1     3     8     5
 -0.0009526678     1     3     9     2
 0.0000000012     1     3    10     2
 0.0000000026     1     4     2     7
 -0.0020551572     1     4     2     8
 0.0001572176     1     4     3     7
 -0.0000000098     1     4     3     8
 -0.2578756530     1     4     4     1
 -0.0003204066     1     4     4     6
 -0.0000000236     1     4     4     9
 -0.0176179607     1     4     4    10
 -0.0000000126     1     4     5     1
 -0.0000000010     1     4     5     6
 0.0005794686     1     4     5     9
 -0.0000000022     1     4     5    10
 -0.0000000003     1     4     7     2
 -0.0002193777     1     4     7     3
 -0.0000736999     1     4     8     2
 0.0000000008     1     4     8     3
 0.0017022912     1     4     9     5
 -0.0000000022     1     4    10     5
 0.0029325492     1     5     2     7
 -0.0000000003     1     5     2     8
 0.0000000069     1     5     3     7
 -0.0007252454     1     5     3     8
 -0.0000000126     1     5     4     1
 -0.0000000010     1     5     4     6
 -0.0009872877     1     5     4     9
 -0.0000000002     1     5     4    10
 -0.2616772804     1     5     5     1
 0.0002472978     1     5     5     6
 -0.0000000214     1     5     5     9
 -0.0180723812     1     5     5    10
 -0.0002475054     1     5     7     2
 0.0000000002     1     5     7     3
 0.0000000008     1     5     8     2
 0.0000984375     1     5     8     3
 -0.0017022912     1     5     9     4
 0.0000000022     1     5    10     4
 -0.0009264550     1     6     2     2
 0.0000000032     1     6     2     3
 0.0000000032     1     6     3     2
 0.0010062180     1     6     3     3
 0.0003204066     1     6     4     4
 0.0000000010     1     6     4     5
 0.0000000010     1     6     5     4
 -0.0002472978     1     6     5     5
 -0.1893957397     1     6     6     1
 -0.0000000149     1     6     6     9
 -0.0118046275     1     6     6    10
 -0.0009795122     1     6     7     7
 -0.0000000036     1     6     7     8
 -0.0000000034     1     6     8     7
 0.0010056844     1     6     8     8
 0.0000000628     1     6     9     1
 0.0012399879     1     6     9     9
 0.0000000095     1     6     9    10
 -0.0071844659     1     6    10     1
 0.0000000091     1     6    10     9
 -0.0012492218     1     6    10    10
 -0.0000000026     1     7     2     4
 -0.0029325492     1     7     2     5
 -0.0001572176     1     7     3     4
 -0.0000000069     1     7     3     5
 -0.0000000047     1     7     4     2
 -0.0007635980     1     7     4     3
 -0.0044611849     1     7     5     2
 -0.0000000080     1     7     5     3
 -0.0000000001     1     7     6     8
 -0.1849187956     1     7     7     1
 0.0009795122     1     7     7     6
 -0.0000000131     1     7     7     9
 -0.0082652601     1     7     7    10
 0.0000000316     1     7     8     1
 0.0000000034     1     7     8     6
 -0.0018222569     1     7     8     9
 0.0000000001     1     7     8    10
 -0.0028790101     1     7     9     8
 0.0000000036     1     7    10     8
 0.0020551572     1     8     2     4
 0.0000000003     1     8     2     5
 0.0000000098     1     8     3     4
 0.0007252454     1     8     3     5
 0.0023247339     1     8     4     2
 0.0000000147     1     8     4     3
 0.0000000022     1     8     5     2
 0.0013579380     1     8     5     3
 0.0000000001     1     8     6     7
 0.0000000316     1     8     7     1
 0.0000000036     1     8     7     6
 0.0010569436     1     8     7     9
 -0.0000000036     1     8     7    10
 -0.1751915402     1     8     8     1
 -0.0010056844     1     8     8     6
 -0.0000000088     1     8     8     9
 -0.0089733709     1     8     8    10
 0.0028790101     1     8     9     7
 -0.0000000036     1     8    10     7
 0.0000000201     1     9     2     2
 0.0015218814     1     9     2     3
 0.0004021025     1     9     3     2
 0.0000000306     1     9     3     3
 0.0000000236     1     9     4     4
 0.0009872877     1     9     4     5
 -0.0005794686     1     9     5     4
 0.0000000214     1     9     5     5
 0.0000000628     1     9     6     1
 0.0000000149     1     9     6     6
 0.0000000004     1     9     6    10
 0.0000000131     1     9     7     7
 -0.0010569436     1     9     7     8
 0.0018222569     1     9     8     7
 0.0000000088     1     9     8     8
 -0.1750715648     1     9     9     1
 -0.0012399879     1     9     9     6
 -0.0071522200     1     9     9    10
 -0.0000000046     1     9    10     1
 -0.0000000091     1     9    10     6
 0.0000000090     1     9    10    10
 0.0210470247     1    10     2     2
 0.0000000045     1    10     2     3
 0.0000000059     1    10     3     2
 0.0191267465     1    10     3     3
 0.0176179607     1    10     4     4
 0.0000000002     1    10     4     5
 0.0000000022     1    10     5     4
 0.0180723812     1    10     5     5
 -0.0071844659     1    10     6     1
 0.0118046275     1    10     6     6
 -0.0000000004     1    10     6     9
 0.0082652601     1    10     7     7
 0.0000000036     1    10     7     8
 -0.0000000001     1    10     8     7
 0.0089733709     1    10     8     8
 -0.0000000046     1    10     9     1
 -0.0000000095     1    10     9     6
 0.0071522200     1    10     9     9
 -0.1787083743     1    10    10     1
 0.0012492218     1    10    10     6
 -0.0000000090     1    10    10     9
 -0.2689223815     2     1     1     2
 -0.0000000116     2     1     1     3
 0.0009526678     2     1     3     9
 -0.0000000012     2     1     3    10
 0.0000000003     2     1     4     7
 0.0000736999     2     1     4     8
 0.0002475054     2     1     5     7
 -0.0000000008     2     1     5     8
 0.0009264550     2     1     6     2
 -0.0000000032     2     1     6     3
 0.0000000047     2     1     7     4
 0.0044611849     2     1     7     5
 -0.0023247339     2     1     8     4
 -0.0000000022     2     1     8     5
 -0.0000000201     2     1     9     2
 -0.0004021025     2     1     9     3
 -0.0210470247     2     1    10     2
 -0.0000000059     2     1    10     3
 0.2689223815     2     2     1     1
 -0.0009264550     2     2     1     6
 0.0000000201     2     2     1     9
 0.0210470247     2     2     1    10
 0.2505467600     2     2     3     3
 0.2299618355     2     2     4     4
 -0.0000000004     2     2     4     5
 -0.0000000004     2     2     5     4
 0.2390049052     2     2     5     5
 -0.0009264550     2     2     6     1
 0.1877376818     2     2     6     6
 -0.0000000181     2     2     6     9
 0.0088908671     2     2     6    10
 0.1844940302     2     2     7     7
 0.0000000016     2     2     7     8
 0.0000000016     2     2     8     7
 0.1693078648     2     2     8     8
 0.0000000201     2     2     9     1
 -0.0000000181     2     2     9     6
 0.1681417237     2     2     9     9
 -0.0000000209     2     2     9    10
 0.0210470247     2     2    10     1
 0.0088908671     2     2    10     6
 -0.0000000209     2     2    10     9
 0.1777659078     2     2    10    10
 0.0000000116     2     3     1     1
 0.0000000032     2     3     1     6
 0.0015218814     2     3     1     9
 0.0000000045     2     3     1    10
 -0.2505467600     2     3     3     2
 -0.0000000005     2     3     4     4
 0.0279363952     2     3     4     5
 -0.0188717848     2     3     5     4
 0.0000000002     2     3     5     5
 0.0000000032     2     3     6     1
 -0.0088869789     2     3     6     9
 -0.0000000182     2     3     6    10
 0.0000000016     2     3     7     7
 -0.0077546724     2     3     7     8
 -0.0074338454     2     3     8     7
 -0.0000000017     2     3     8     8
 0.0004021025     2     3     9     1
 -0.0088869795     2     3     9     6
 -0.0000000206     2     3     9     9
 0.0047036866     2     3     9    10
 0.0000000059     2     3    10     1
 -0.0000000182     2     3    10     6
 0.0051463612     2     3    10     9
 0.0000000205     2     3    10    10
 -0.0000000026     2     4     1     7
 0.0020551572     2     4     1     8
 0.0455976124     2     4     3     5
 -0.2299618355     2     4     4     2
 0.0000000005     2     4     4     3
 0.0000000004     2     4     5     2
 0.0188717848     2     4     5     3
 0.0000000024     2     4     6     7
 -0.0251627320     2     4     6     8
 -0.0000000047     2     4     7     1
 0.0000000024     2     4     7     6
 -0.0164148038     2     4     7     9
 -0.0000000351     2     4     7    10
 0.0023247339     2     4     8     1
 -0.0249390541     2     4     8     6
 -0.0000000342     2     4     8     9
 0.0156369047     2     4     8    10
 -0.0164657846     2     4     9     7
 -0.0000000341     2     4     9     8
 -0.0000000351     2     4    10     7
 0.0156424076     2     4    10     8
 -0.0029325492     2     5     1     7
 0.0000000003     2     5     1     8
 -0.0455976124     2     5     3     4
 0.0000000004     2     5     4     2
 -0.0279363952     2     5     4     3
 -0.2390049052     2     5     5     2
 -0.0000000002     2     5     5     3
 -0.0251454637     2     5     6     7
 -0.0000000023     2     5     6     8
 -0.0044611849     2     5     7     1
 -0.0249263227     2     5     7     6
 0.0000000460     2     5     7     9
 -0.0216868329     2     5     7    10
 0.0000000022     2     5     8     1
 -0.0000000022     2     5     8     6
 -0.0103269265     2     5     8     9
 -0.0000000234     2     5     8    10
 0.0000000460     2     5     9     7
 -0.0103534982     2     5     9     8
 -0.0217172023     2     5    10     7
 -0.0000000235     2     5    10     8
 0.0009264550     2     6     1     2
 -0.0000000032     2     6     1     3
 0.0000000003     2     6     3     9
 -0.0001085447     2     6     4     8
 -0.0001062766     2     6     5     7
 -0.1877376818     2     6     6     2
 -0.0000000024     2     6     7     4
 0.0249263227     2     6     7     5
 0.0249390541     2     6     8     4
 0.0000000022     2     6     8     5
 0.0000000181     2     6     9     2
 0.0088869795     2     6     9     3
 -0.0088908671     2     6    10     2
 0.0000000182     2     6    10     3
 0.0000000026     2     7     1     4
 0.0029325492     2     7     1     5
 -0.0002776766     2     7     3     8
 -0.0000000003     2     7     4     1
 0.0000304757     2     7     4     9
 -0.0002475054     2     7     5     1
 0.0001062766     2     7     5     6
 0.0000000001     2     7     5     9
 0.0000019321     2     7     5    10
 -0.0000000024     2     7     6     4
 0.0251454637     2     7     6     5
 -0.1844940302     2     7     7     2
 -0.0000000016     2     7     7     3
 -0.0000000016     2     7     8     2
 0.0074338454     2     7     8     3
 0.0164657846     2     7     9     4
 -0.0000000460     2     7     9     5
 0.0000000351     2     7    10     4
 0.0217172023     2     7    10     5
 -0.0020551572     2     8     1     4
 -0.0000000003     2     8     1     5
 0.0002776766     2     8     3     7
 -0.0000736999     2     8     4     1
 0.0001085447     2     8     4     6
 -0.0000000001     2     8     4     9
 0.0000285747     2     8     4    10
 0.0000000008     2     8     5     1
 0.0000011990     2     8     5     9
 0.0251627320     2     8     6     4
 0.0000000023     2     8     6     5
 -0.0000000016     2     8     7     2
 0.0077546724     2     8     7     3
 -0.1693078648     2     8     8     2
 0.0000000017     2     8     8     3
 0.0000000341     2     8     9     4
 0.0103534982     2     8     9     5
 -0.0156424076     2     8    10     4
 0.0000000235     2     8    10     5
 -0.0000000201     2     9     1     2
 -0.0015218814     2     9     1     3
 -0.0009526678     2     9     3     1
 -0.0000000003     2     9     3     6
 -0.0002162279     2     9     3    10
 -0.0000304757     2     9     4     7
 0.0000000001     2     9     4     8
 -0.0000000001     2     9     5     7
 -0.0000011990     2     9     5     8
 0.0000000181     2     9     6     2
 0.0088869789     2     9     6     3
 0.0164148038     2     9     7     4
 -0.0000000460     2     9     7     5
 0.0000000342     2     9     8     4
 0.0103269265     2     9     8     5
 -0.1681417237     2     9     9     2
 0.0000000206     2     9     9     3
 0.0000000209     2     9    10     2
 -0.0051463612     2     9    10     3
 -0.0210470247     2    10     1     2
 -0.0000000045     2    10     1     3
 0.0000000012     2    10     3     1
 0.0002162279     2    10     3     9
 -0.0000285747     2    10     4     8
 -0.0000019321     2    10     5     7
 -0.0088908671     2    10     6     2
 0.0000000182     2    10     6     3
 0.0000000351     2    10     7     4
 0.0216868329     2    10     7     5
 -0.0156369047     2    10     8     4
 0.0000000234     2    10     8     5
 0.0000000209     2    10     9     2
 -0.0047036866     2    10     9     3
 -0.1777659078     2    10    10     2
 -0.0000000205     2    10    10     3
 -0.0000000116     3     1     1     2
 -0.2654505288     3     1     1     3
 -0.0009526678     3     1     2     9
 0.0000000012     3     1     2    10
 0.0002193777     3     1     4     7
 -0.0000000008     3     1     4     8
 -0.0000000002     3     1     5     7
 -0.0000984375     3     1     5     8
 -0.0000000032     3     1     6     2
 -0.0010062180     3     1     6     3
 0.0007635980     3     1     7     4
 0.0000000080     3     1     7     5
 -0.0000000147     3     1     8     4
 -0.0013579380     3     1     8     5
 -0.0015218814     3     1     9     2
 -0.0000000306     3     1     9     3
 -0.0000000045     3     1    10     2
 -0.0191267465     3     1    10     3
 0.0000000116     3     2     1     1
 0.0000000032     3     2     1     6
 0.0004021025     3     2     1     9
 0.0000000059     3     2     1    10
 -0.2505467600     3     2     2     3
 -0.0000000005     3     2     4     4
 -0.0188717848     3     2     4     5
 0.0279363952     3     2     5     4
 0.0000000002     3     2     5     5
 0.0000000032     3     2     6     1
 -0.0088869795     3     2     6     9
 -0.0000000182     3     2     6    10
 0.0000000016     3     2     7     7
 -0.0074338454     3     2     7     8
 -0.0077546724     3     2     8     7
 -0.0000000017     3     2     8     8
 0.0015218814     3     2     9     1
 -0.0088869789     3     2     9     6
 -0.0000000206     3     2     9     9
 0.0051463612     3     2     9    10
 0.0000000045     3     2    10     1
 -0.0000000182     3     2    10     6
 0.0047036866     3     2    10     9
 0.0000000205     3     2    10    10
 0.2654505288     3     3     1     1
 0.0010062180     3     3     1     6
 0.0000000306     3     3     1     9
 0.0191267465     3     3     1    10
 0.2505467600     3     3     2     2
 0.2390632921     3     3     4     4
 0.0000000003     3     3     4     5
 0.0000000003     3     3     5     4
 0.2299771525     3     3     5     5
 0.0010062180     3     3     6     1
 0.1877376630     3     3     6     6
 0.0000000181     3     3     6     9
 -0.0088908765     3     3     6    10
 0.1693169247     3     3     7     7
 -0.0000000016     3     3     7     8
 -0.0000000016     3     3     8     7
 0.1845078073     3     3     8     8
 0.0000000306     3     3     9     1
 0.0000000181     3     3     9     6
 0.1780033508     3     3     9     9
 0.0000000203     3     3     9    10
 0.0191267465     3     3    10     1
 -0.0088908765     3     3    10     6
 0.0000000203     3     3    10     9
 0.1679274863     3     3    10    10
 -0.0001572176     3     4     1     7
 0.0000000098     3     4     1     8
 -0.0455976124     3     4     2     5
 0.0000000005     3     4     4     2
 -0.2390632921     3     4     4     3
 -0.0279363952     3     4     5     2
 -0.0000000003     3     4     5     3
 0.0251789224     3     4     6     7
 0.0000000025     3     4     6     8
 -0.0007635980     3     4     7     1
 0.0249608440     3     4     7     6
 -0.0000000231     3     4     7     9
 0.0103530085     3     4     7    10
 0.0000000147     3     4     8     1
 0.0000000025     3     4     8     6
 0.0217659290     3     4     8     9
 0.0000000457     3     4     8    10
 -0.0000000233     3     4     9     7
 0.0217942050     3     4     9     8
 0.0103767657     3     4    10     7
 0.0000000458     3     4    10     8
 -0.0000000069     3     5     1     7
 0.0007252454     3     5     1     8
 0.0455976124     3     5     2     4
 0.0188717848     3     5     4     2
 -0.0000000003     3     5     4     3
 -0.0000000002     3     5     5     2
 -0.2299771525     3     5     5     3
 0.0000000024     3     5     6     7
 -0.0251693254     3     5     6     8
 -0.0000000080     3     5     7     1
 0.0000000024     3     5     7     6
 -0.0156648625     3     5     7     9
 -0.0000000339     3     5     7    10
 0.0013579380     3     5     8     1
 -0.0249480689     3     5     8     6
 -0.0000000351     3     5     8     9
 0.0164161205     3     5     8    10
 -0.0156708580     3     5     9     7
 -0.0000000353     3     5     9     8
 -0.0000000339     3     5    10     7
 0.0164626169     3     5    10     8
 -0.0000000032     3     6     1     2
 -0.0010062180     3     6     1     3
 -0.0000000003     3     6     2     9
 0.0001078249     3     6     4     7
 -0.0001100930     3     6     5     8
 -0.1877376630     3     6     6     3
 -0.0249608440     3     6     7     4
 -0.0000000024     3     6     7     5
 -0.0000000025     3     6     8     4
 0.0249480689     3     6     8     5
 0.0088869789     3     6     9     2
 -0.0000000181     3     6     9     3
 0.0000000182     3     6    10     2
 0.0088908765     3     6    10     3
 0.0001572176     3     7     1     4
 0.0000000069     3     7     1     5
 0.0002776766     3     7     2     8
 -0.0002193777     3     7     4     1
 -0.0001078249     3     7     4     6
 -0.0000028957     3     7     4    10
 0.0000000002     3     7     5     1
 -0.0000337410     3     7     5     9
 -0.0000000001     3     7     5    10
 -0.0251789224     3     7     6     4
 -0.0000000024     3     7     6     5
 -0.0000000016     3     7     7     2
 -0.1693169247     3     7     7     3
 0.0077546724     3     7     8     2
 0.0000000016     3     7     8     3
 0.0000000233     3     7     9     4
 0.0156708580     3     7     9     5
 -0.0103767657     3     7    10     4
 0.0000000339     3     7    10     5
 -0.0000000098     3     8     1     4
 -0.0007252454     3     8     1     5
 -0.0002776766     3     8     2     7
 0.0000000008     3     8     4     1
 0.0000061929     3     8     4     9
 0.0000984375     3     8     5     1
 0.0001100930     3     8     5     6
 0.0000000001     3     8     5     9
 -0.0000316744     3     8     5    10
 -0.0000000025     3     8     6     4
 0.0251693254     3     8     6     5
 0.0074338454     3     8     7     2
 0.0000000016     3     8     7     3
 0.0000000017     3     8     8     2
 -0.1845078073     3     8     8     3
 -0.0217942050     3     8     9     4
 0.0000000353     3     8     9     5
 -0.0000000458     3     8    10     4
 -0.0164626169     3     8    10     5
 -0.0004021025     3     9     1     2
 -0.0000000306     3     9     1     3
 0.0009526678     3     9     2     1
 0.0000000003     3     9     2     6
 0.0002162279     3     9     2    10
 -0.0000061929     3     9     4     8
 0.0000337410     3     9     5     7
 -0.0000000001     3     9     5     8
 0.0088869795     3     9     6     2
 -0.0000000181     3     9     6     3
 0.0000000231     3     9     7     4
 0.0156648625     3     9     7     5
 -0.0217659290     3     9     8     4
 0.0000000351     3     9     8     5
 0.0000000206     3     9     9     2
 -0.1780033508     3     9     9     3
 -0.0047036866     3     9    10     2
 -0.0000000203     3     9    10     3
 -0.0000000059     3    10     1     2
 -0.0191267465     3    10     1     3
 -0.0000000012     3    10     2     1
 -0.0002162279     3    10     2     9
 0.0000028957     3    10     4     7
 0.0000000001     3    10     5     7
 0.0000316744     3    10     5     8
 0.0000000182     3    10     6     2
 0.0088908765     3    10     6     3
 -0.0103530085     3    10     7     4
 0.0000000339     3    10     7     5
 -0.0000000457     3    10     8     4
 -0.0164161205     3    10     8     5
 -0.0051463612     3    10     9     2
 -0.0000000203     3    10     9     3
 -0.0000000205     3    10    10     2
 -0.1679274863     3    10    10     3
 -0.2578756530     4     1     1     4
 -0.0000000126     4     1     1     5
 -0.0000000003     4     1     2     7
 -0.0000736999     4     1     2     8
 -0.0002193777     4     1     3     7
 0.0000000008     4     1     3     8
 0.0017022912     4     1     5     9
 -0.0000000022     4     1     5    10
 -0.0003204066     4     1     6     4
 -0.0000000010     4     1     6     5
 0.0000000026     4     1     7     2
 0.0001572176     4     1     7     3
 -0.0020551572     4     1     8     2
 -0.0000000098     4     1     8     3
 -0.0000000236     4     1     9     4
 0.0005794686     4     1     9     5
 -0.0176179607     4     1    10     4
 -0.0000000022     4     1    10     5
 -0.0000000047     4     2     1     7
 0.0023247339     4     2     1     8
 -0.2299618355     4     2     2     4
 0.0000000004     4     2     2     5
 0.0000000005     4     2     3     4
 0.0188717848     4     2     3     5
 0.0455976124     4     2     5     3
 0.0000000024     4     2     6     7
 -0.0249390541     4     2     6     8
 -0.0000000026     4     2     7     1
 0.0000000024     4     2     7     6
 -0.0164657846     4     2     7     9
 -0.0000000351     4     2     7    10
 0.0020551572     4     2     8     1
 -0.0251627320     4     2     8     6
 -0.0000000341     4     2     8     9
 0.0156424076     4     2     8    10
 -0.0164148038     4     2     9     7
 -0.0000000342     4     2     9     8
 -0.0000000351     4     2    10     7
 0.0156369047     4     2    10     8
 -0.0007635980     4     3     1     7
 0.0000000147     4     3     1     8
 0.0000000005     4     3     2     4
 -0.0279363952     4     3     2     5
 -0.2390632921     4     3     3     4
 -0.0000000003     4     3     3     5
 -0.0455976124     4     3     5     2
 0.0249608440     4     3     6     7
 0.0000000025     4     3     6     8
 -0.0001572176     4     3     7     1
 0.0251789224     4     3     7     6
 -0.0000000233     4     3     7     9
 0.0103767657     4     3     7    10
 0.0000000098     4     3     8     1
 0.0000000025     4     3     8     6
 0.0217942050     4     3     8     9
 0.0000000458     4     3     8    10
 -0.0000000231     4     3     9     7
 0.0217659290     4     3     9     8
 0.0103530085     4     3    10     7
 0.0000000457     4     3    10     8
 0.2578756530     4     4     1     1
 0.0003204066     4     4     1     6
 0.0000000236     4     4     1     9
 0.0176179607     4     4     1    10
 0.2299618355     4     4     2     2
 -0.0000000005     4     4     2     3
 -0.0000000005     4     4     3     2
 0.2390632921     4     4     3     3
 0.2441609159     4     4     5     5
 0.0003204066     4     4     6     1
 0.1840705989     4     4     6     6
 0.0000000125     4     4     6     9
 -0.0058937002     4     4     6    10
 0.1696090674     4     4     7     7
 -0.0000000006     4     4     7     8
 -0.0000000006     4     4     8     7
 0.1792663290     4     4     8     8
 0.0000000236     4     4     9     1
 0.0000000125     4     4     9     6
 0.1745402164     4     4     9     9
 0.0000000140     4     4     9    10
 0.0176179607     4     4    10     1
 -0.0058937002     4     4    10     6
 0.0000000140     4     4    10     9
 0.1673858211     4     4    10    10
 0.0000000126     4     5     1     1
 0.0000000010     4     5     1     6
 0.0009872877     4     5     1     9
 0.0000000002     4     5     1    10
 -0.0000000004     4     5     2     2
 0.0279363952     4     5     2     3
 -0.0188717848     4     5     3     2
 0.0000000003     4     5     3     3
 -0.2441609159     4     5     5     4
 0.0000000010     4     5     6     1
 -0.0058934322     4     5     6     9
 -0.0000000125     4     5     6    10
 0.0000000006     4     5     7     7
 -0.0049143859     4     5     7     8
 -0.0047483216     4     5     8     7
 -0.0000000006     4     5     8     8
 -0.0005794686     4     5     9     1
 -0.0058934322     4     5     9     6
 -0.0000000143     4     5     9     9
 0.0034255093     4     5     9    10
 0.0000000022     4     5    10     1
 -0.0000000125     4     5    10     6
 0.0035225223     4     5    10     9
 0.0000000143     4     5    10    10
 -0.0003204066     4     6     1     4
 -0.0000000010     4     6     1     5
 0.0001085447     4     6     2     8
 -0.0001078249     4     6     3     7
 0.0000000002     4     6     5     9
 -0.1840705989     4     6     6     4
 -0.0000000024     4     6     7     2
 -0.0251789224     4     6     7     3
 0.0251627320     4     6     8     2
 -0.0000000025     4     6     8     3
 -0.0000000125     4     6     9     4
 0.0058934322     4     6     9     5
 0.0058937002     4     6    10     4
 0.0000000125     4     6    10     5
 0.0000000047     4     7     1     2
 0.0007635980     4     7     1     3
 0.0000000003     4     7     2     1
 -0.0000304757     4     7     2     9
 0.0002193777     4     7     3     1
 0.0001078249     4     7     3     6
 0.0000028957     4     7     3    10
 -0.0002130844     4     7     5     8
 -0.0000000024     4     7     6     2
 -0.0249608440     4     7     6     3
 -0.1696090674     4     7     7     4
 -0.0000000006     4     7     7     5
 0.0000000006     4     7     8     4
 0.0047483216     4     7     8     5
 0.0164148038     4     7     9     2
 0.0000000231     4     7     9     3
 0.0000000351     4     7    10     2
 -0.0103530085     4     7    10     3
 -0.0023247339     4     8     1     2
 -0.0000000147     4     8     1     3
 0.0000736999     4     8     2     1
 -0.0001085447     4     8     2     6
 0.0000000001     4     8     2     9
 -0.0000285747     4     8     2    10
 -0.0000000008     4     8     3     1
 -0.0000061929     4     8     3     9
 0.0002130844     4     8     5     7
 0.0249390541     4     8     6     2
 -0.0000000025     4     8     6     3
 0.0000000006     4     8     7     4
 0.0049143859     4     8     7     5
 -0.1792663290     4     8     8     4
 0.0000000006     4     8     8     5
 0.0000000342     4     8     9     2
 -0.0217659290     4     8     9     3
 -0.0156369047     4     8    10     2
 -0.0000000457     4     8    10     3
 -0.0000000236     4     9     1     4
 -0.0009872877     4     9     1     5
 0.0000304757     4     9     2     7
 -0.0000000001     4     9     2     8
 0.0000061929     4     9     3     8
 -0.0017022912     4     9     5     1
 -0.0000000002     4     9     5     6
 -0.0003209986     4     9     5    10
 -0.0000000125     4     9     6     4
 0.0058934322     4     9     6     5
 0.0164657846     4     9     7     2
 0.0000000233     4     9     7     3
 0.0000000341     4     9     8     2
 -0.0217942050     4     9     8     3
 -0.1745402164     4     9     9     4
 0.0000000143     4     9     9     5
 -0.0000000140     4     9    10     4
 -0.0035225223     4     9    10     5
 -0.0176179607     4    10     1     4
 -0.0000000002     4    10     1     5
 0.0000285747     4    10     2     8
 -0.0000028957     4    10     3     7
 0.0000000022     4    10     5     1
 0.0003209986     4    10     5     9
 0.0058937002     4    10     6     4
 0.0000000125     4    10     6     5
 0.0000000351     4    10     7     2
 -0.0103767657     4    10     7     3
 -0.0156424076     4    10     8     2
 -0.0000000458     4    10     8     3
 -0.0000000140     4    10     9     4