&FCI NORB=  8,NELEC=  6,MS2=0,
 ORBSYM=1,1,1,1,1,1,1,1
 ISYM=1,
&END
 0.2696849901     1     1     2     2
 0.0000000086     1     1     2     3
 0.0000000086     1     1     3     2
 0.2666071500     1     1     3     3
 0.2567259067     1     1     4     4
 0.0000000110     1     1     4     5
 0.0000000110     1     1     5     4
 0.2607500100     1     1     5     5
 0.1895668461     1     1     6     6
 0.1850616898     1     1     7     7
 -0.0000000300     1     1     7     8
 -0.0000000300     1     1     8     7
 0.1752093237     1     1     8     8
 -0.2696849901     1     2     2     1
 0.0009177410     1     2     2     6
 -0.0000000086     1     2     3     1
 -0.0000000025     1     2     3     6
 0.0000000027     1     2     4     7
 -0.0020385269     1     2     4     8
 0.0038455447     1     2     5     7
 -0.0000000027     1     2     5     8
 0.0000000003     1     2     7     4
 0.0002137506     1     2     7     5
 0.0000885570     1     2     8     4
 -0.0000000006     1     2     8     5
 -0.0000000086     1     3     2     1
 -0.0000000025     1     3     2     6
 -0.2666071500     1     3     3     1
 -0.0009184120     1     3     3     6
 0.0005747020     1     3     4     7
 -0.0000000108     1     3     4     8
 0.0000000055     1     3     5     7
 -0.0012182190     1     3     5     8
 0.0001947187     1     3     7     4
 -0.0000000002     1     3     7     5
 -0.0000000006     1     3     8     4
 -0.0001041719     1     3     8     5
 0.0000000014     1     4     2     7
 -0.0020740618     1     4     2     8
 0.0001117196     1     4     3     7
 -0.0000000083     1     4     3     8
 -0.2567259067     1     4     4     1
 -0.0003081178     1     4     4     6
 -0.0000000110     1     4     5     1
 -0.0000000009     1     4     5     6
 -0.0000000003     1     4     7     2
 -0.0001947187     1     4     7     3
 -0.0000885570     1     4     8     2
 0.0000000006     1     4     8     3
 0.0029409490     1     5     2     7
 -0.0000000012     1     5     2     8
 0.0000000056     1     5     3     7
 -0.0007642517     1     5     3     8
 -0.0000000110     1     5     4     1
 -0.0000000009     1     5     4     6
 -0.2607500100     1     5     5     1
 0.0003082831     1     5     5     6
 -0.0002137506     1     5     7     2
 0.0000000002     1     5     7     3
 0.0000000006     1     5     8     2
 0.0001041719     1     5     8     3
 -0.0009177410     1     6     2     2
 0.0000000025     1     6     2     3
 0.0000000025     1     6     3     2
 0.0009184120     1     6     3     3
 0.0003081178     1     6     4     4
 0.0000000009     1     6     4     5
 0.0000000009     1     6     5     4
 -0.0003082831     1     6     5     5
 -0.1895668461     1     6     6     1
 -0.0009379663     1     6     7     7
 -0.0000000022     1     6     7     8
 -0.0000000021     1     6     8     7
 0.0009545934     1     6     8     8
 -0.0000000014     1     7     2     4
 -0.0029409490     1     7     2     5
 -0.0001117196     1     7     3     4
 -0.0000000056     1     7     3     5
 -0.0000000027     1     7     4     2
 -0.0005747020     1     7     4     3
 -0.0038455447     1     7     5     2
 -0.0000000055     1     7     5     3
 -0.0000000002     1     7     6     8
 -0.1850616898     1     7     7     1
 0.0009379663     1     7     7     6
 0.0000000300     1     7     8     1
 0.0000000021     1     7     8     6
 0.0020740618     1     8     2     4
 0.0000000012     1     8     2     5
 0.0000000083     1     8     3     4
 0.0007642517     1     8     3     5
 0.0020385269     1     8     4     2
 0.0000000108     1     8     4     3
 0.0000000027     1     8     5     2
 0.0012182190     1     8     5     3
 0.0000000002     1     8     6     7
 0.0000000300     1     8     7     1
 0.0000000022     1     8     7     6
 -0.1752093237     1     8     8     1
 -0.0009545934     1     8     8     6
 -0.2696849901     2     1     1     2
 -0.0000000086     2     1     1     3
 0.0000000003     2     1     4     7
 0.0000885570     2     1     4     8
 0.0002137506     2     1     5     7
 -0.0000000006     2     1     5     8
 0.0009177410     2     1     6     2
 -0.0000000025     2     1     6     3
 0.0000000027     2     1     7     4
 0.0038455447     2     1     7     5
 -0.0020385269     2     1     8     4
 -0.0000000027     2     1     8     5
 0.2696849901     2     2     1     1
 -0.0009177410     2     2     1     6
 0.2505094579     2     2     3     3
 0.2309066383     2     2     4     4
 -0.0000000006     2     2     4     5
 -0.0000000006     2     2     5     4
 0.2407005688     2     2     5     5
 -0.0009177410     2     2     6     1
 0.1878713166     2     2     6     6
 0.1843820913     2     2     7     7
 -0.0000000036     2     2     7     8
 -0.0000000036     2     2     8     7
 0.1694534695     2     2     8     8
 0.0000000086     2     3     1     1
 0.0000000025     2     3     1     6
 -0.2505094579     2     3     3     2
 -0.0000000007     2     3     4     4
 0.0273576759     2     3     4     5
 -0.0175469469     2     3     5     4
 0.0000000005     2     3     5     5
 0.0000000025     2     3     6     1
 -0.0000000036     2     3     7     7
 -0.0076172481     2     3     7     8
 -0.0073137986     2     3     8     7
 0.0000000036     2     3     8     8
 -0.0000000014     2     4     1     7
 0.0020740618     2     4     1     8
 0.0447493487     2     4     3     5
 -0.2309066383     2     4     4     2
 0.0000000007     2     4     4     3
 0.0000000006     2     4     5     2
 0.0175469469     2     4     5     3
 -0.0000000062     2     4     6     7
 -0.0247008480     2     4     6     8
 -0.0000000027     2     4     7     1
 -0.0000000061     2     4     7     6
 0.0020385269     2     4     8     1
 -0.0244780108     2     4     8     6
 -0.0029409490     2     5     1     7
 0.0000000012     2     5     1     8
 -0.0447493487     2     5     3     4
 0.0000000006     2     5     4     2
 -0.0273576759     2     5     4     3
 -0.2407005688     2     5     5     2
 -0.0000000005     2     5     5     3
 -0.0246799387     2     5     6     7
 0.0000000062     2     5     6     8
 -0.0038455447     2     5     7     1
 -0.0244633289     2     5     7     6
 0.0000000027     2     5     8     1
 0.0000000062     2     5     8     6
 0.0009177410     2     6     1     2
 -0.0000000025     2     6     1     3
 -0.0000000001     2     6     4     7
 -0.0001032895     2     6     4     8
 -0.0001012310     2     6     5     7
 -0.1878713166     2     6     6     2
 0.0000000061     2     6     7     4
 0.0244633289     2     6     7     5
 0.0244780108     2     6     8     4
 -0.0000000062     2     6     8     5
 0.0000000014     2     7     1     4
 0.0029409490     2     7     1     5
 -0.0002778109     2     7     3     8
 -0.0000000003     2     7     4     1
 0.0000000001     2     7     4     6
 -0.0002137506     2     7     5     1
 0.0001012310     2     7     5     6
 0.0000000062     2     7     6     4
 0.0246799387     2     7     6     5
 -0.1843820913     2     7     7     2
 0.0000000036     2     7     7     3
 0.0000000036     2     7     8     2
 0.0073137986     2     7     8     3
 -0.0020740618     2     8     1     4
 -0.0000000012     2     8     1     5
 0.0002778109     2     8     3     7
 -0.0000885570     2     8     4     1
 0.0001032895     2     8     4     6
 0.0000000006     2     8     5     1
 0.0247008480     2     8     6     4
 -0.0000000062     2     8     6     5
 0.0000000036     2     8     7     2
 0.0076172481     2     8     7     3
 -0.1694534695     2     8     8     2
 -0.0000000036     2     8     8     3
 -0.0000000086     3     1     1     2
 -0.2666071500     3     1     1     3
 0.0001947187     3     1     4     7
 -0.0000000006     3     1     4     8
 -0.0000000002     3     1     5     7
 -0.0001041719     3     1     5     8
 -0.0000000025     3     1     6     2
 -0.0009184120     3     1     6     3
 0.0005747020     3     1     7     4
 0.0000000055     3     1     7     5
 -0.0000000108     3     1     8     4
 -0.0012182190     3     1     8     5
 0.0000000086     3     2     1     1
 0.0000000025     3     2     1     6
 -0.2505094579     3     2     2     3
 -0.0000000007     3     2     4     4
 -0.0175469469     3     2     4     5
 0.0273576759     3     2     5     4
 0.0000000005     3     2     5     5
 0.0000000025     3     2     6     1
 -0.0000000036     3     2     7     7
 -0.0073137986     3     2     7     8
 -0.0076172481     3     2     8     7
 0.0000000036     3     2     8     8
 0.2666071500     3     3     1     1
 0.0009184120     3     3     1     6
 0.2505094579     3     3     2     2
 0.2407527176     3     3     4     4
 0.0000000005     3     3     4     5
 0.0000000005     3     3     5     4
 0.2309256353     3     3     5     5
 0.0009184120     3     3     6     1
 0.1878706811     3     3     6     6
 0.1694590965     3     3     7     7
 0.0000000036     3     3     7     8
 0.0000000036     3     3     8     7
 0.1843937192     3     3     8     8
 -0.0001117196     3     4     1     7
 0.0000000083     3     4     1     8
 -0.0447493487     3     4     2     5
 0.0000000007     3     4     4     2
 -0.2407527176     3     4     4     3
 -0.0273576759     3     4     5     2
 -0.0000000005     3     4     5     3
 0.0247164674     3     4     6     7
 -0.0000000061     3     4     6     8
 -0.0005747020     3     4     7     1
 0.0244996668     3     4     7     6
 0.0000000108     3     4     8     1
 -0.0000000060     3     4     8     6
 -0.0000000056     3     5     1     7
 0.0007642517     3     5     1     8
 0.0447493487     3     5     2     4
 0.0175469469     3     5     4     2
 -0.0000000005     3     5     4     3
 -0.0000000005     3     5     5     2
 -0.2309256353     3     5     5     3
 -0.0000000061     3     5     6     7
 -0.0247071440     3     5     6     8
 -0.0000000055     3     5     7     1
 -0.0000000061     3     5     7     6
 0.0012182190     3     5     8     1
 -0.0244879658     3     5     8     6
 -0.0000000025     3     6     1     2
 -0.0009184120     3     6     1     3
 0.0001025611     3     6     4     7
 -0.0001045650     3     6     5     8
 -0.1878706811     3     6     6     3
 -0.0244996668     3     6     7     4
 0.0000000061     3     6     7     5
 0.0000000060     3     6     8     4
 0.0244879658     3     6     8     5
 0.0001117196     3     7     1     4
 0.0000000056     3     7     1     5
 0.0002778109     3     7     2     8
 -0.0001947187     3     7     4     1
 -0.0001025611     3     7     4     6
 0.0000000002     3     7     5     1
 -0.0247164674     3     7     6     4
 0.0000000061     3     7     6     5
 0.0000000036     3     7     7     2
 -0.1694590965     3     7     7     3
 0.0076172481     3     7     8     2
 -0.0000000036     3     7     8     3
 -0.0000000083     3     8     1     4
 -0.0007642517     3     8     1     5
 -0.0002778109     3     8     2     7
 0.0000000006     3     8     4     1
 0.0001041719     3     8     5     1
 0.0001045650     3     8     5     6
 0.0000000061     3     8     6     4
 0.0247071440     3     8     6     5
 0.0073137986     3     8     7     2
 -0.0000000036     3     8     7     3
 -0.0000000036     3     8     8     2
 -0.1843937192     3     8     8     3
 -0.2567259067     4     1     1     4
 -0.0000000110     4     1     1     5
 -0.0000000003     4     1     2     7
 -0.0000885570     4     1     2     8
 -0.0001947187     4     1     3     7
 0.0000000006     4     1     3     8
 -0.0003081178     4     1     6     4
 -0.0000000009     4     1     6     5
 0.0000000014     4     1     7     2
 0.0001117196     4     1     7     3
 -0.0020740618     4     1     8     2
 -0.0000000083     4     1     8     3
 -0.0000000027     4     2     1     7
 0.0020385269     4     2     1     8
 -0.2309066383     4     2     2     4
 0.0000000006     4     2     2     5
 0.0000000007     4     2     3     4
 0.0175469469     4     2     3     5
 0.0447493487     4     2     5     3
 -0.0000000061     4     2     6     7
 -0.0244780108     4     2     6     8
 -0.0000000014     4     2     7     1
 -0.0000000062     4     2     7     6
 0.0020740618     4     2     8     1
 -0.0247008480     4     2     8     6
 -0.0005747020     4     3     1     7
 0.0000000108     4     3     1     8
 0.0000000007     4     3     2     4
 -0.0273576759     4     3     2     5
 -0.2407527176     4     3     3     4
 -0.0000000005     4     3     3     5
 -0.0447493487     4     3     5     2
 0.0244996668     4     3     6     7
 -0.0000000060     4     3     6     8
 -0.0001117196     4     3     7     1
 0.0247164674     4     3     7     6
 0.0000000083     4     3     8     1
 -0.0000000061     4     3     8     6
 0.2567259067     4     4     1     1
 0.0003081178     4     4     1     6
 0.2309066383     4     4     2     2
 -0.0000000007     4     4     2     3
 -0.0000000007     4     4     3     2
 0.2407527176     4     4     3     3
 0.2438371475     4     4     5     5
 0.0003081178     4     4     6     1
 0.1843822764     4     4     6     6
 0.1699453333     4     4     7     7
 0.0000000029     4     4     7     8
 0.0000000029     4     4     8     7
 0.1795436336     4     4     8     8
 0.0000000110     4     5     1     1
 0.0000000009     4     5     1     6
 -0.0000000006     4     5     2     2
 0.0273576759     4     5     2     3
 -0.0175469469     4     5     3     2
 0.0000000005     4     5     3     3
 -0.2438371475     4     5     5     4
 0.0000000009     4     5     6     1
 -0.0000000028     4     5     7     7
 -0.0048875063     4     5     7     8
 -0.0047166279     4     5     8     7
 0.0000000029     4     5     8     8
 -0.0003081178     4     6     1     4
 -0.0000000009     4     6     1     5
 0.0000000001     4     6     2     7
 0.0001032895     4     6     2     8
 -0.0001025611     4     6     3     7
 -0.1843822764     4     6     6     4
 0.0000000062     4     6     7     2
 -0.0247164674     4     6     7     3
 0.0247008480     4     6     8     2
 0.0000000061     4     6     8     3
 0.0000000027     4     7     1     2
 0.0005747020     4     7     1     3
 0.0000000003     4     7     2     1
 -0.0000000001     4     7     2     6
 0.0001947187     4     7     3     1
 0.0001025611     4     7     3     6
 -0.0002089830     4     7     5     8
 0.0000000061     4     7     6     2
 -0.0244996668     4     7     6     3
 -0.1699453333     4     7     7     4
 0.0000000028     4     7     7     5
 -0.0000000029     4     7     8     4
 0.0047166279     4     7     8     5
 -0.0020385269     4     8     1     2
 -0.0000000108     4     8     1     3
 0.0000885570     4     8     2     1
 -0.0001032895     4     8     2     6
 -0.0000000006     4     8     3     1
 0.0002089830     4     8     5     7
 0.0244780108     4     8     6     2
 0.0000000060     4     8     6     3
 -0.0000000029     4     8     7     4
 0.0048875063     4     8     7     5
 -0.1795436336     4     8     8     4
 -0.0000000029     4     8     8     5
 -0.0000000110     5     1     1     4
 -0.2607500100     5     1     1     5
 -0.0002137506     5     1     2     7
 0.0000000006     5     1     2     8
 0.0000000002     5     1     3     7
 0.0001041719     5     1     3     8
 -0.0000000009     5     1     6     4
 0.0003082831     5     1     6     5
 0.0029409490     5     1     7     2
 0.0000000056     5     1     7     3
 -0.0000000012     5     1     8     2
 -0.0007642517     5     1     8     3
 -0.0038455447     5     2     1     7
 0.0000000027     5     2     1     8
 0.0000000006     5     2     2     4
 -0.2407005688     5     2     2     5
 -0.0273576759     5     2     3     4
 -0.0000000005     5     2     3     5
 -0.0447493487     5     2     4     3
 -0.0244633289     5     2     6     7
 0.0000000062     5     2     6     8
 -0.0029409490     5     2     7     1
 -0.0246799387     5     2     7     6
 0.0000000012     5     2     8     1
 0.0000000062     5     2     8     6
 -0.0000000055     5     3     1     7
 0.0012182190     5     3     1     8
 0.0175469469     5     3     2     4
 -0.0000000005     5     3     2     5
 -0.0000000005     5     3     3     4
 -0.2309256353     5     3     3     5
 0.0447493487     5     3     4     2
 -0.0000000061     5     3     6     7
 -0.0244879658     5     3     6     8
 -0.0000000056     5     3     7     1
 -0.0000000061     5     3     7     6
 0.0007642517     5     3     8     1
 -0.0247071440     5     3     8     6
 0.0000000110     5     4     1     1
 0.0000000009     5     4     1     6
 -0.0000000006     5     4     2     2
 -0.0175469469     5     4     2     3
 0.0273576759     5     4     3     2
 0.0000000005     5     4     3     3
 -0.2438371475     5     4     4     5
 0.0000000009     5     4     6     1
 -0.0000000028     5     4     7     7
 -0.0047166279     5     4     7     8
 -0.0048875063     5     4     8     7
 0.0000000029     5     4     8     8
 0.2607500100     5     5     1     1
 -0.0003082831     5     5     1     6
 0.2407005688     5     5     2     2
 0.0000000005     5     5     2     3
 0.0000000005     5     5     3     2
 0.2309256353     5     5     3     3
 0.2438371475     5     5     4     4
 -0.0003082831     5     5     6     1
 0.1843809320     5     5     6     6
 0.1795459673     5     5     7     7
 -0.0000000028     5     5     7     8
 -0.0000000028     5     5     8     7
 0.1699430174     5     5     8     8
 -0.0000000009     5     6     1     4
 0.0003082831     5     6     1     5
 0.0001012310     5     6     2     7
 0.0001045650     5     6     3     8
 -0.1843809320     5     6     6     5
 0.0246799387     5     6     7     2
 0.0000000061     5     6     7     3
 -0.0000000062     5     6     8     2
 0.0247071440     5     6     8     3
 0.0038455447     5     7     1     2
 0.0000000055     5     7     1     3
 0.0002137506     5     7     2     1
 -0.0001012310     5     7     2     6
 -0.0000000002     5     7     3     1
 0.0002089830     5     7     4     8
 0.0244633289     5     7     6     2
 0.0000000061     5     7     6     3
 0.0000000028     5     7     7     4
 -0.1795459673     5     7     7     5
 0.0048875063     5     7     8     4
 0.0000000028     5     7     8     5
 -0.0000000027     5     8     1     2
 -0.0012182190     5     8     1     3
 -0.0000000006     5     8     2     1
 -0.0001041719     5     8     3     1
 -0.0001045650     5     8     3     6
 -0.0002089830     5     8     4     7
 -0.0000000062     5     8     6     2
 0.0244879658     5     8     6     3
 0.0047166279     5     8     7     4
 0.0000000028     5     8     7     5
 -0.0000000029     5     8     8     4
 -0.1699430174     5     8     8     5
 -0.1895668461     6     1     1     6
 -0.0009177410     6     1     2     2
 0.0000000025     6     1     2     3
 0.0000000025     6     1     3     2
 0.0009184120     6     1     3     3
 0.0003081178     6     1     4     4
 0.0000000009     6     1     4     5
 0.0000000009     6     1     5     4
 -0.0003082831     6     1     5     5
 -0.0009379663     6     1     7     7
 -0.0000000021     6     1     7     8
 -0.0000000022     6     1     8     7
 0.0009545934     6     1     8     8
 0.0009177410     6     2     2     1
 -0.1878713166     6     2     2     6
 -0.0000000025     6     2     3     1
 0.0000000061     6     2     4     7
 0.0244780108     6     2     4     8
 0.0244633289     6     2     5     7
 -0.0000000062     6     2     5     8
 -0.0000000001     6     2     7     4
 -0.0001012310     6     2     7     5
 -0.0001032895     6     2     8     4
 -0.0000000025     6     3     2     1
 -0.0009184120     6     3     3     1
 -0.1878706811     6     3     3     6
 -0.0244996668     6     3     4     7
 0.0000000060     6     3     4     8
 0.0000000061     6     3     5     7
 0.0244879658     6     3     5     8
 0.0001025611     6     3     7     4
 -0.0001045650     6     3     8     5
 0.0000000062     6     4     2     7
 0.0247008480     6     4     2     8
 -0.0247164674     6     4     3     7
 0.0000000061     6     4     3     8
 -0.0003081178     6     4     4     1
 -0.1843822764     6     4     4     6
 -0.0000000009     6     4     5     1
 0.0000000001     6     4     7     2
 -0.0001025611     6     4     7     3
 0.0001032895     6     4     8     2
 0.0246799387     6     5     2     7
 -0.0000000062     6     5     2     8
 0.0000000061     6     5     3     7
 0.0247071440     6     5     3     8
 -0.0000000009     6     5     4     1
 0.0003082831     6     5     5     1
 -0.1843809320     6     5     5     6
 0.0001012310     6     5     7     2
 0.0001045650     6     5     8     3
 0.1895668461     6     6     1     1
 0.1878713166     6     6     2     2
 0.1878706811     6     6     3     3
 0.1843822764     6     6     4     4
 0.1843809320     6     6     5     5
 0.1119060678     6     6     7     7
 0.1119014426     6     6     8     8
 0.0000000002     6     7     1     8
 -0.0000000062     6     7     2     4
 -0.0246799387     6     7     2     5
 0.0247164674     6     7     3     4
 -0.0000000061     6     7     3     5
 -0.0000000061     6     7     4     2
 0.0244996668     6     7     4     3
 -0.0244633289     6     7     5     2
 -0.0000000061     6     7     5     3
 0.0009379663     6     7     7     1
 -0.1119060678     6     7     7     6
 0.0000000022     6     7     8     1
 -0.0000000002     6     8     1     7
 -0.0247008480     6     8     2     4
 0.0000000062     6     8     2     5
 -0.0000000061     6     8     3     4
 -0.0247071440     6     8     3     5
 -0.0244780108     6     8     4     2
 -0.0000000060     6     8     4     3
 0.0000000062     6     8     5     2
 -0.0244879658     6     8     5     3
 0.0000000021     6     8     7     1
 -0.0009545934     6     8     8     1
 -0.1119014426     6     8     8     6
 -0.1850616898     7     1     1     7
 0.0000000300     7     1     1     8
 -0.0000000027     7     1     2     4
 -0.0038455447     7     1     2     5
 -0.0005747020     7     1     3     4
 -0.0000000055     7     1     3     5
 -0.0000000014     7     1     4     2
 -0.0001117196     7     1     4     3
 -0.0029409490     7     1     5     2
 -0.0000000056     7     1     5     3
 0.0009379663     7     1     6     7
 0.0000000021     7     1     6     8
 -0.0000000002     7     1     8     6
 -0.0000000003     7     2     1     4
 -0.0002137506     7     2     1     5
 -0.1843820913     7     2     2     7
 0.0000000036     7     2     2     8
 0.0000000036     7     2     3     7
 0.0073137986     7     2     3     8
 0.0000000014     7     2     4     1
 0.0000000062     7     2     4     6
 0.0029409490     7     2     5     1
 0.0246799387     7     2     5     6
 0.0000000001     7     2     6     4
 0.0001012310     7     2     6     5
 -0.0002778109     7     2     8     3
 -0.0001947187     7     3     1     4
 0.0000000002     7     3     1     5
 0.0000000036     7     3     2     7
 0.0076172481     7     3     2     8
 -0.1694590965     7     3     3     7
 -0.0000000036     7     3     3     8
 0.0001117196     7     3     4     1
 -0.0247164674     7     3     4     6
 0.0000000056     7     3     5     1
 0.0000000061     7     3     5     6
 -0.0001025611     7     3     6     4
 0.0002778109     7     3     8     2
 0.0000000003     7     4     1     2
 0.0001947187     7     4     1     3
 0.0000000027     7     4     2     1
 0.0000000061     7     4     2     6
 0.0005747020     7     4     3     1
 -0.0244996668     7     4     3     6
 -0.1699453333     7     4     4     7
 -0.0000000029     7     4     4     8
 0.0000000028     7     4     5     7
 0.0047166279     7     4     5     8
 -0.0000000001     7     4     6     2
 0.0001025611     7     4     6     3
 -0.0002089830     7     4     8     5
 0.0002137506     7     5     1     2
 -0.0000000002     7     5     1     3
 0.0038455447     7     5     2     1
 0.0244633289     7     5     2     6
 0.0000000055     7     5     3     1
 0.0000000061     7     5     3     6
 0.0000000028     7     5     4     7
 0.0048875063     7     5     4     8
 -0.1795459673     7     5     5     7
 0.0000000028     7     5     5     8
 -0.0001012310     7     5     6     2
 0.0002089830     7     5     8     4
 0.0009379663     7     6     1     7
 0.0000000022     7     6     1     8
 -0.0000000061     7     6     2     4
 -0.0244633289     7     6     2     5
 0.0244996668     7     6     3     4
 -0.0000000061     7     6     3     5
 -0.0000000062     7     6     4     2
 0.0247164674     7     6     4     3
 -0.0246799387     7     6     5     2
 -0.0000000061     7     6     5     3
 -0.1119060678     7     6     6     7
 0.0000000002     7     6     8     1
 0.1850616898     7     7     1     1
 -0.0009379663     7     7     1     6
 0.1843820913     7     7     2     2
 -0.0000000036     7     7     2     3
 -0.0000000036     7     7     3     2
 0.1694590965     7     7     3     3
 0.1699453333     7     7     4     4
 -0.0000000028     7     7     4     5
 -0.0000000028     7     7     5     4
 0.1795459673     7     7     5     5
 -0.0009379663     7     7     6     1
 0.1119060678     7     7     6     6
 0.1312736789     7     7     8     8
 -0.0000000300     7     8     1     1
 -0.0000000022     7     8     1     6
 -0.0000000036     7     8     2     2
 -0.0076172481     7     8     2     3
 -0.0073137986     7     8     3     2
 0.0000000036     7     8     3     3
 0.0000000029     7     8     4     4
 -0.0048875063     7     8     4     5
 -0.0047166279     7     8     5     4
 -0.0000000028     7     8     5     5
 -0.0000000021     7     8     6     1
 -0.1312736789     7     8     8     7
 0.0000000300     8     1     1     7
 -0.1752093237     8     1     1     8
 0.0020385269     8     1     2     4
 0.0000000027     8     1     2     5
 0.0000000108     8     1     3     4
 0.0012182190     8     1     3     5
 0.0020740618     8     1     4     2
 0.0000000083     8     1     4     3
 0.0000000012     8     1     5     2
 0.0007642517     8     1     5     3
 0.0000000022     8     1     6     7
 -0.0009545934     8     1     6     8
 0.0000000002     8     1     7     6
 -0.0000885570     8     2     1     4
 0.0000000006     8     2     1     5
 0.0000000036     8     2     2     7
 -0.1694534695     8     2     2     8
 0.0076172481     8     2     3     7
 -0.0000000036     8     2     3     8
 -0.0020740618     8     2     4     1
 0.0247008480     8     2     4     6
 -0.0000000012     8     2     5     1
 -0.0000000062     8     2     5     6
 0.0001032895     8     2     6     4
 0.0002778109     8     2     7     3
 0.0000000006     8     3     1     4
 0.0001041719     8     3     1     5
 0.0073137986     8     3     2     7
 -0.0000000036     8     3     2     8
 -0.0000000036     8     3     3     7
 -0.1843937192     8     3     3     8
 -0.0000000083     8     3     4     1
 0.0000000061     8     3     4     6
 -0.0007642517     8     3     5     1
 0.0247071440     8     3     5     6
 0.0001045650     8     3     6     5
 -0.0002778109     8     3     7     2
 0.0000885570     8     4     1     2
 -0.0000000006     8     4     1     3
 -0.0020385269     8     4     2     1
 0.0244780108     8     4     2     6
 -0.0000000108     8     4     3     1
 0.0000000060     8     4     3     6
 -0.0000000029     8     4     4     7
 -0.1795436336     8     4     4     8
 0.0048875063     8     4     5     7
 -0.0000000029     8     4     5     8
 -0.0001032895     8     4     6     2
 0.0002089830     8     4     7     5
 -0.0000000006     8     5     1     2
 -0.0001041719     8     5     1     3
 -0.0000000027     8     5     2     1
 -0.0000000062     8     5     2     6
 -0.0012182190     8     5     3     1
 0.0244879658     8     5     3     6
 0.0047166279     8     5     4     7
 -0.0000000029     8     5     4     8
 0.0000000028     8     5     5     7
 -0.1699430174     8     5     5     8
 -0.0001045650     8     5     6     3
 -0.0002089830     8     5     7     4
 0.0000000021     8     6     1     7
 -0.0009545934     8     6     1     8
 -0.0244780108     8     6     2     4
 0.0000000062     8     6     2     5
 -0.0000000060     8     6     3     4
 -0.0244879658     8     6     3     5
 -0.0247008480     8     6     4     2
 -0.0000000061     8     6     4     3
 0.0000000062     8     6     5     2
 -0.0247071440     8     6     5     3
 -0.1119014426     8     6     6     8
 -0.0000000002     8     6     7     1
 -0.0000000300     8     7     1     1
 -0.0000000021     8     7     1     6
 -0.0000000036     8     7     2     2
 -0.0073137986     8     7     2     3
 -0.0076172481     8     7     3     2
 0.0000000036     8     7     3     3
 0.0000000029     8     7     4     4
 -0.0047166279     8     7     4     5
 -0.0048875063     8     7     5     4
 -0.0000000028     8     7     5     5
 -0.0000000022     8     7     6     1
 -0.1312736789     8     7     7     8
 0.1752093237     8     8     1     1
 0.0009545934     8     8     1     6
 0.1694534695     8     8     2     2
 0.0000000036     8     8     2     3
 0.0000000036     8     8     3     2
 0.1843937192     8     8     3     3
 0.1795436336     8     8     4     4
 0.0000000029     8     8     4     5
 0.0000000029     8     8     5     4
 0.1699430174     8     8     5     5
 0.0009545934     8     8     6     1
 0.1119014426     8     8     6     6
 0.1312736789     8     8     7     7
0.0 0 0 0 0
 0.2696849901     1     1     2     2
 0.0000000086     1     1     2     3
 0.0000000086     1     1     3     2
 0.2666071500     1     1     3     3
 0.2567259067     1     1     4     4
 0.0000000110     1     1     4     5
 0.0000000110     1     1     5     4
 0.2607500100     1     1     5     5
 0.1895668461     1     1     6     6