&FCI NORB=  7,NELEC=  8,MS2=0,
 ORBSYM=1,1,1,1,1,1,1
 ISYM=1,
&END
 0.2585117957     1     1     2     2
 0.0000000199     1     1     2     7
 0.2666059923     1     1     3     3
 0.0000000101     1     1     3     4
 0.0000000101     1     1     4     3
 0.2696762974     1     1     4     4
 0.2607650616     1     1     5     5
 -0.0000000130     1     1     5     6
 -0.0000000130     1     1     6     5
 0.2567287042     1     1     6     6
 0.0000000199     1     1     7     2
 0.1895715511     1     1     7     7
 -0.2585117957     1     2     2     1
 0.0000000101     1     2     3     3
 0.0019221931     1     2     3     4
 0.0011481144     1     2     4     3
 -0.0000000101     1     2     4     4
 -0.0000000130     1     2     5     5
 -0.0011734100     1     2     5     6
 -0.0028629331     1     2     6     5
 0.0000000130     1     2     6     6
 -0.0000000199     1     2     7     1
 0.0000756812     1     3     2     4
 -0.2666059923     1     3     3     1
 -0.0000000101     1     3     3     2
 0.0000000029     1     3     3     7
 -0.0000000101     1     3     4     1
 -0.0011481144     1     3     4     2
 -0.0009339153     1     3     4     7
 -0.0000000005     1     3     7     4
 -0.0000756812     1     4     2     3
 -0.0000000101     1     4     3     1
 -0.0019221931     1     4     3     2
 -0.0009339147     1     4     3     7
 -0.2696762974     1     4     4     1
 0.0000000101     1     4     4     2
 -0.0000000029     1     4     4     7
 0.0000000005     1     4     7     3
 0.0007831708     1     5     2     6
 -0.2607650616     1     5     5     1
 0.0000000130     1     5     5     2
 -0.0000000008     1     5     5     7
 0.0000000130     1     5     6     1
 0.0028629331     1     5     6     2
 0.0002535924     1     5     6     7
 0.0000000014     1     5     7     6
 -0.0007831708     1     6     2     5
 0.0000000130     1     6     5     1
 0.0011734100     1     6     5     2
 0.0002535911     1     6     5     7
 -0.2567287042     1     6     6     1
 -0.0000000130     1     6     6     2
 0.0000000008     1     6     6     7
 -0.0000000014     1     6     7     5
 -0.0000000199     1     7     2     1
 -0.0000000029     1     7     3     3
 0.0009339147     1     7     3     4
 0.0009339153     1     7     4     3
 0.0000000029     1     7     4     4
 0.0000000008     1     7     5     5
 -0.0002535911     1     7     5     6
 -0.0002535924     1     7     6     5
 -0.0000000008     1     7     6     6
 -0.1895715511     1     7     7     1
 -0.2585117957     2     1     1     2
 -0.0000000199     2     1     1     7
 0.0000000101     2     1     3     3
 0.0011481144     2     1     3     4
 0.0019221931     2     1     4     3
 -0.0000000101     2     1     4     4
 -0.0000000130     2     1     5     5
 -0.0028629331     2     1     5     6
 -0.0011734100     2     1     6     5
 0.0000000130     2     1     6     6
 0.2585117957     2     2     1     1
 0.2696762896     2     2     3     3
 -0.0000000101     2     2     3     4
 -0.0000000101     2     2     4     3
 0.2666059662     2     2     4     4
 0.2567286980     2     2     5     5
 0.0000000130     2     2     5     6
 0.0000000130     2     2     6     5
 0.2607650409     2     2     6     6
 0.1895715630     2     2     7     7
 -0.0000756812     2     3     1     4
 -0.0000000101     2     3     3     1
 -0.2696762896     2     3     3     2
 0.0009338941     2     3     3     7
 -0.0019221931     2     3     4     1
 0.0000000101     2     3     4     2
 0.0000000029     2     3     4     7
 0.0000756812     2     4     1     3
 -0.0011481144     2     4     3     1
 0.0000000101     2     4     3     2
 0.0000000029     2     4     3     7
 0.0000000101     2     4     4     1
 -0.2666059662     2     4     4     2
 -0.0009339356     2     4     4     7
 -0.0007831708     2     5     1     6
 0.0000000130     2     5     5     1
 -0.2567286980     2     5     5     2
 -0.0002536102     2     5     5     7
 0.0011734100     2     5     6     1
 -0.0000000130     2     5     6     2
 -0.0000000008     2     5     6     7
 0.0007831708     2     6     1     5
 0.0028629331     2     6     5     1
 -0.0000000130     2     6     5     2
 -0.0000000008     2     6     5     7
 -0.0000000130     2     6     6     1
 -0.2607650409     2     6     6     2
 0.0002535740     2     6     6     7
 0.0000000199     2     7     1     1
 -0.0009338941     2     7     3     3
 -0.0000000029     2     7     3     4
 -0.0000000029     2     7     4     3
 0.0009339356     2     7     4     4
 0.0002536102     2     7     5     5
 0.0000000008     2     7     5     6
 0.0000000008     2     7     6     5
 -0.0002535740     2     7     6     6
 -0.1895715630     2     7     7     2
 -0.2666059923     3     1     1     3
 -0.0000000101     3     1     1     4
 -0.0000000101     3     1     2     3
 -0.0011481144     3     1     2     4
 0.0000756812     3     1     4     2
 -0.0000000005     3     1     4     7
 0.0000000029     3     1     7     3
 -0.0009339153     3     1     7     4
 -0.0000000101     3     2     1     3
 -0.0019221931     3     2     1     4
 -0.2696762896     3     2     2     3
 0.0000000101     3     2     2     4
 -0.0000756812     3     2     4     1
 0.0009338941     3     2     7     3
 0.0000000029     3     2     7     4
 0.2666059923     3     3     1     1
 0.0000000101     3     3     1     2
 -0.0000000029     3     3     1     7
 0.0000000101     3     3     2     1
 0.2696762896     3     3     2     2
 -0.0009338941     3     3     2     7
 0.2505110753     3     3     4     4
 0.2309276179     3     3     5     5
 -0.0000000008     3     3     5     6
 -0.0000000008     3     3     6     5
 0.2407569504     3     3     6     6
 -0.0000000029     3     3     7     1
 -0.0009338941     3     3     7     2
 0.1878703762     3     3     7     7
 0.0000000101     3     4     1     1
 0.0019221931     3     4     1     2
 0.0009339147     3     4     1     7
 0.0011481144     3     4     2     1
 -0.0000000101     3     4     2     2
 -0.0000000029     3     4     2     7
 -0.2505110753     3     4     4     3
 0.0000000008     3     4     5     5
 -0.0273693202     3     4     5     6
 0.0175399783     3     4     6     5
 -0.0000000008     3     4     6     6
 0.0009339153     3     4     7     1
 -0.0000000029     3     4     7     2
 -0.0447582427     3     5     4     6
 -0.2309276179     3     5     5     3
 -0.0000000008     3     5     5     4
 0.0000000008     3     5     6     3
 -0.0175399783     3     5     6     4
 0.0447582427     3     6     4     5
 0.0000000008     3     6     5     3
 0.0273693202     3     6     5     4
 -0.2407569504     3     6     6     3
 0.0000000008     3     6     6     4
 0.0000000029     3     7     1     3
 -0.0009339147     3     7     1     4
 0.0009338941     3     7     2     3
 0.0000000029     3     7     2     4
 0.0000000005     3     7     4     1
 -0.1878703762     3     7     7     3
 -0.0000000101     4     1     1     3
 -0.2696762974     4     1     1     4
 -0.0019221931     4     1     2     3
 0.0000000101     4     1     2     4
 -0.0000756812     4     1     3     2
 0.0000000005     4     1     3     7
 -0.0009339147     4     1     7     3
 -0.0000000029     4     1     7     4
 -0.0011481144     4     2     1     3
 0.0000000101     4     2     1     4
 0.0000000101     4     2     2     3
 -0.2666059662     4     2     2     4
 0.0000756812     4     2     3     1
 0.0000000029     4     2     7     3
 -0.0009339356     4     2     7     4
 0.0000000101     4     3     1     1
 0.0011481144     4     3     1     2
 0.0009339153     4     3     1     7
 0.0019221931     4     3     2     1
 -0.0000000101     4     3     2     2
 -0.0000000029     4     3     2     7
 -0.2505110753     4     3     3     4
 0.0000000008     4     3     5     5
 0.0175399783     4     3     5     6
 -0.0273693202     4     3     6     5
 -0.0000000008     4     3     6     6
 0.0009339147     4     3     7     1
 -0.0000000029     4     3     7     2
 0.2696762974     4     4     1     1
 -0.0000000101     4     4     1     2
 0.0000000029     4     4     1     7
 -0.0000000101     4     4     2     1
 0.2666059662     4     4     2     2
 0.0009339356     4     4     2     7
 0.2505110753     4     4     3     3
 0.2407569480     4     4     5     5
 0.0000000008     4     4     5     6
 0.0000000008     4     4     6     5
 0.2309276088     4     4     6     6
 0.0000000029     4     4     7     1
 0.0009339356     4     4     7     2
 0.1878703578     4     4     7     7
 0.0447582427     4     5     3     6
 -0.0000000008     4     5     5     3
 -0.2407569480     4     5     5     4
 0.0273693202     4     5     6     3
 -0.0000000008     4     5     6     4
 -0.0447582427     4     6     3     5
 -0.0175399783     4     6     5     3
 -0.0000000008     4     6     5     4
 0.0000000008     4     6     6     3
 -0.2309276088     4     6     6     4
 -0.0009339153     4     7     1     3
 -0.0000000029     4     7     1     4
 0.0000000029     4     7     2     3
 -0.0009339356     4     7     2     4
 -0.0000000005     4     7     3     1
 -0.1878703578     4     7     7     4
 -0.2607650616     5     1     1     5
 0.0000000130     5     1     1     6
 0.0000000130     5     1     2     5
 0.0028629331     5     1     2     6
 0.0007831708     5     1     6     2
 0.0000000014     5     1     6     7
 -0.0000000008     5     1     7     5
 0.0002535924     5     1     7     6
 0.0000000130     5     2     1     5
 0.0011734100     5     2     1     6
 -0.2567286980     5     2     2     5
 -0.0000000130     5     2     2     6
 -0.0007831708     5     2     6     1
 -0.0002536102     5     2     7     5
 -0.0000000008     5     2     7     6
 -0.2309276179     5     3     3     5
 0.0000000008     5     3     3     6
 -0.0000000008     5     3     4     5
 -0.0175399783     5     3     4     6
 -0.0447582427     5     3     6     4
 -0.0000000008     5     4     3     5
 0.0273693202     5     4     3     6
 -0.2407569480     5     4     4     5
 -0.0000000008     5     4     4     6
 0.0447582427     5     4     6     3
 0.2607650616     5     5     1     1
 -0.0000000130     5     5     1     2
 0.0000000008     5     5     1     7
 -0.0000000130     5     5     2     1
 0.2567286980     5     5     2     2
 0.0002536102     5     5     2     7
 0.2309276179     5     5     3     3
 0.0000000008     5     5     3     4
 0.0000000008     5     5     4     3
 0.2407569480     5     5     4     4
 0.2438347412     5     5     6     6
 0.0000000008     5     5     7     1
 0.0002536102     5     5     7     2
 0.1843810177     5     5     7     7
 -0.0000000130     5     6     1     1
 -0.0011734100     5     6     1     2
 -0.0002535911     5     6     1     7
 -0.0028629331     5     6     2     1
 0.0000000130     5     6     2     2
 0.0000000008     5     6     2     7
 -0.0000000008     5     6     3     3
 -0.0273693202     5     6     3     4
 0.0175399783     5     6     4     3
 0.0000000008     5     6     4     4
 -0.2438347412     5     6     6     5
 -0.0002535924     5     6     7     1
 0.0000000008     5     6     7     2
 -0.0000000008     5     7     1     5
 0.0002535911     5     7     1     6
 -0.0002536102     5     7     2     5
 -0.0000000008     5     7     2     6
 -0.0000000014     5     7     6     1
 -0.1843810177     5     7     7     5
 0.0000000130     6     1     1     5
 -0.2567287042     6     1     1     6
 0.0011734100     6     1     2     5
 -0.0000000130     6     1     2     6
 -0.0007831708     6     1     5     2
 -0.0000000014     6     1     5     7
 0.0002535911     6     1     7     5
 0.0000000008     6     1     7     6
 0.0028629331     6     2     1     5
 -0.0000000130     6     2     1     6
 -0.0000000130     6     2     2     5
 -0.2607650409     6     2     2     6
 0.0007831708     6     2     5     1
 -0.0000000008     6     2     7     5
 0.0002535740     6     2     7     6
 0.0000000008     6     3     3     5
 -0.2407569504     6     3     3     6
 0.0273693202     6     3     4     5
 0.0000000008     6     3     4     6
 0.0447582427     6     3     5     4
 -0.0175399783     6     4     3     5
 0.0000000008     6     4     3     6
 -0.0000000008     6     4     4     5
 -0.2309276088     6     4     4     6
 -0.0447582427     6     4     5     3
 -0.0000000130     6     5     1     1
 -0.0028629331     6     5     1     2
 -0.0002535924     6     5     1     7
 -0.0011734100     6     5     2     1
 0.0000000130     6     5     2     2
 0.0000000008     6     5     2     7
 -0.0000000008     6     5     3     3
 0.0175399783     6     5     3     4
 -0.0273693202     6     5     4     3
 0.0000000008     6     5     4     4
 -0.2438347412     6     5     5     6
 -0.0002535911     6     5     7     1
 0.0000000008     6     5     7     2
 0.2567287042     6     6     1     1
 0.0000000130     6     6     1     2
 -0.0000000008     6     6     1     7
 0.0000000130     6     6     2     1
 0.2607650409     6     6     2     2
 -0.0002535740     6     6     2     7
 0.2407569504     6     6     3     3
 -0.0000000008     6     6     3     4
 -0.0000000008     6     6     4     3
 0.2309276088     6     6     4     4
 0.2438347412     6     6     5     5
 -0.0000000008     6     6     7     1
 -0.0002535740     6     6     7     2
 0.1843810264     6     6     7     7
 0.0002535924     6     7     1     5
 0.0000000008     6     7     1     6
 -0.0000000008     6     7     2     5
 0.0002535740     6     7     2     6
 0.0000000014     6     7     5     1
 -0.1843810264     6     7     7     6
 -0.0000000199     7     1     1     2
 -0.1895715511     7     1     1     7
 -0.0000000029     7     1     3     3
 0.0009339153     7     1     3     4
 0.0009339147     7     1     4     3
 0.0000000029     7     1     4     4
 0.0000000008     7     1     5     5
 -0.0002535924     7     1     5     6
 -0.0002535911     7     1     6     5
 -0.0000000008     7     1     6     6
 0.0000000199     7     2     1     1
 -0.1895715630     7     2     2     7
 -0.0009338941     7     2     3     3
 -0.0000000029     7     2     3     4
 -0.0000000029     7     2     4     3
 0.0009339356     7     2     4     4
 0.0002536102     7     2     5     5
 0.0000000008     7     2     5     6
 0.0000000008     7     2     6     5
 -0.0002535740     7     2     6     6
 0.0000000005     7     3     1     4
 0.0000000029     7     3     3     1
 0.0009338941     7     3     3     2
 -0.1878703762     7     3     3     7
 -0.0009339147     7     3     4     1
 0.0000000029     7     3     4     2
 -0.0000000005     7     4     1     3
 -0.0009339153     7     4     3     1
 0.0000000029     7     4     3     2
 -0.0000000029     7     4     4     1
 -0.0009339356     7     4     4     2
 -0.1878703578     7     4     4     7
 -0.0000000014     7     5     1     6
 -0.0000000008     7     5     5     1
 -0.0002536102     7     5     5     2
 -0.1843810177     7     5     5     7
 0.0002535911     7     5     6     1
 -0.0000000008     7     5     6     2
 0.0000000014     7     6     1     5
 0.0002535924     7     6     5     1
 -0.0000000008     7     6     5     2
 0.0000000008     7     6     6     1
 0.0002535740     7     6     6     2
 -0.1843810264     7     6     6     7
 0.1895715511     7     7     1     1
 0.1895715630     7     7     2     2
 0.1878703762     7     7     3     3
 0.1878703578     7     7     4     4
 0.1843810177     7     7     5     5
 0.1843810264     7     7     6     6
0.0 0 0 0 0
 0.2585117957     1     1     2     2
 0.0000000199     1     1     2     7
 0.2666059923     1     1     3     3
 0.0000000101     1     1     3     4
 0.0000000101     1     1     4     3
 0.2696762974     1     1     4     4
 0.2607650616     1     1     5     5
 -0.0000000130     1     1     5     6
 -0.0000000130     1     1     6     5
 0.2567287042     1     1     6     6
 0.0000000199     1     1     7     2
 0.1895715511     1     1     7     7
 -0.2585117957     1     2     2     1
 0.0000000101     1     2     3     3
 0.0019221931     1     2     3     4
 0.0011481144     1     2     4     3
 -0.0000000101     1     2     4     4
 -0.0000000130     1     2     5     5
 -0.0011734100     1     2     5     6
 -0.0028629331     1     2     6     5
 0.0000000130     1     2     6     6
 -0.0000000199     1     2     7     1
 0.0000756812     1     3     2     4
 -0.2666059923     1     3     3     1
 -0.0000000101     1     3     3     2
 0.0000000029     1     3     3     7
 -0.0000000101     1     3     4     1
 -0.0011481144     1     3     4     2
 -0.0009339153     1     3     4     7
 -0.0000000005     1     3     7     4
 -0.0000756812     1     4     2     3
 -0.0000000101     1     4     3     1
 -0.0019221931     1     4     3     2
 -0.0009339147     1     4     3     7
 -0.2696762974     1     4     4     1
 0.0000000101     1     4     4     2
 -0.0000000029     1     4     4     7
 0.0000000005     1     4     7     3
 0.0007831708     1     5     2     6
 -0.2607650616     1     5     5     1
 0.0000000130     1     5     5     2
 -0.0000000008     1     5     5     7
 0.0000000130     1     5     6     1
 0.0028629331     1     5     6     2
 0.0002535924     1     5     6     7
 0.0000000014     1     5     7     6
 -0.0007831708     1     6     2     5
 0.0000000130     1     6     5     1
 0.0011734100     1     6     5     2
 0.0002535911     1     6     5     7
 -0.2567287042     1     6     6     1
 -0.0000000130     1     6     6     2
 0.0000000008     1     6     6     7
 -0.0000000014     1     6     7     5
 -0.0000000199     1     7     2     1
 -0.0000000029     1     7     3     3
 0.0009339147     1     7     3     4
 0.0009339153     1     7     4     3
 0.0000000029     1     7     4     4
 0.0000000008     1     7     5     5
 -0.0002535911     1     7     5     6
 -0.0002535924     1     7     6     5
 -0.0000000008     1     7     6     6
 -0.1895715511     1     7     7     1
 -0.2585117957     2     1     1     2
 -0.0000000199     2     1     1     7
 0.0000000101     2     1     3     3
 0.0011481144     2     1     3     4
 0.0019221931     2     1     4     3
 -0.0000000101     2     1     4     4
 -0.0000000130     2     1     5     5
 -0.0028629331     2     1     5     6
 -0.0011734100     2     1     6     5
 0.0000000130     2     1     6     6
 0.2585117957     2     2     1     1
 0.2696762896     2     2     3     3
 -0.0000000101     2     2     3     4
 -0.0000000101     2     2     4     3
 0.2666059662     2     2     4     4
 0.2567286980     2     2     5     5
 0.0000000130     2     2     5     6
 0.0000000130     2     2     6     5
 0.2607650409     2     2     6     6
 0.1895715630     2     2     7     7
 -0.0000756812     2     3     1     4
 -0.0000000101     2     3     3     1
 -0.2696762896     2     3     3     2
 0.0009338941     2     3     3     7
 -0.0019221931     2     3     4     1
 0.0000000101     2     3     4     2
 0.0000000029     2     3     4     7
 0.0000756812     2     4     1     3
 -0.0011481144     2     4     3     1
 0.0000000101     2     4     3     2
 0.0000000029     2     4     3     7
 0.0000000101     2     4     4     1
 -0.2666059662     2     4     4     2
 -0.0009339356     2     4     4     7
 -0.0007831708     2     5     1     6
 0.0000000130     2     5     5     1
 -0.2567286980     2     5     5     2
 -0.0002536102     2     5     5     7
 0.0011734100     2     5     6     1
 -0.0000000130     2     5     6     2
 -0.0000000008     2     5     6     7
 0.0007831708     2     6     1     5
 0.0028629331     2     6     5     1
 -0.0000000130     2     6     5     2
 -0.0000000008     2     6     5     7
 -0.0000000130     2     6     6     1
 -0.2607650409     2     6     6     2
 0.0002535740     2     6     6     7
 0.0000000199     2     7     1     1
 -0.0009338941     2     7     3     3
 -0.0000000029     2     7     3     4
 -0.0000000029     2     7     4     3
 0.0009339356     2     7     4     4
 0.0002536102     2     7     5     5
 0.0000000008     2     7     5     6
 0.0000000008     2     7     6     5
 -0.0002535740     2     7     6     6
 -0.1895715630     2     7     7     2
 -0.2666059923     3     1     1     3
 -0.0000000101     3     1     1     4
 -0.0000000101     3     1     2     3
 -0.0011481144     3     1     2     4
 0.0000756812     3     1     4     2
 -0.0000000005     3     1     4     7
 0.0000000029     3     1     7     3
 -0.0009339153     3     1     7     4
 -0.0000000101     3     2     1     3
 -0.0019221931     3     2     1     4
 -0.2696762896     3     2     2     3
 0.0000000101     3     2     2     4
 -0.0000756812     3     2     4     1
 0.0009338941     3     2     7     3
 0.0000000029     3     2     7     4
 0.2666059923     3     3     1     1
 0.0000000101     3     3     1     2
 -0.0000000029     3     3     1     7
 0.0000000101     3     3     2     1
 0.2696762896     3     3     2     2
 -0.0009338941     3     3     2     7
 0.2505110753     3     3     4     4
 0.2309276179     3     3     5     5
 -0.0000000008     3     3     5     6
 -0.0000000008     3     3     6     5
 0.2407569504     3     3     6     6
 -0.0000000029     3     3     7     1
 -0.0009338941     3     3     7     2
 0.1878703762     3     3     7     7
 0.0000000101     3     4     1     1
 0.0019221931     3     4     1     2
 0.0009339147     3     4     1     7
 0.0011481144     3     4     2     1
 -0.0000000101     3     4     2     2
 -0.0000000029     3     4     2     7
 -0.2505110753     3     4     4     3
 0.0000000008     3     4     5     5
 -0.0273693202     3     4     5     6
 0.0175399783     3     4     6     5
 -0.0000000008     3     4     6     6
 0.0009339153     3     4     7     1
 -0.0000000029     3     4     7     2
 -0.0447582427     3     5     4     6
 -0.2309276179     3     5     5     3
 -0.0000000008     3     5     5     4
 0.0000000008     3     5     6     3
 -0.0175399783     3     5     6     4
 0.0447582427     3     6     4     5
 0.0000000008     3     6     5     3
 0.0273693202     3     6     5     4
 -0.2407569504     3     6     6     3
 0.0000000008     3     6     6     4
 0.0000000029     3     7     1     3
 -0.0009339147     3     7     1     4
 0.0009338941     3     7     2     3
 0.0000000029     3     7     2     4
 0.0000000005     3     7     4     1
 -0.1878703762     3     7     7     3
 -0.0000000101     4     1     1     3
 -0.2696762974     4     1     1     4
 -0.0019221931     4     1     2     3
 0.0000000101     4     1     2     4
 -0.0000756812     4     1     3     2
 0.0000000005     4     1     3     7
 -0.0009339147     4     1     7     3
 -0.0000000029     4     1     7     4
 -0.0011481144     4     2     1     3
 0.0000000101     4     2     1     4
 0.0000000101     4     2     2     3
 -0.2666059662     4     2     2     4
 0.0000756812     4     2     3     1
 0.0000000029     4     2     7     3
 -0.0009339356     4     2     7     4
 0.0000000101     4     3     1     1
 0.0011481144     4     3     1     2
 0.0009339153     4     3     1     7
 0.0019221931     4     3     2     1
 -0.0000000101     4     3     2     2
 -0.0000000029     4     3     2     7
 -0.2505110753     4     3     3     4
 0.0000000008     4     3     5     5
 0.0175399783     4     3     5     6
 -0.0273693202     4     3     6     5
 -0.0000000008     4     3     6     6
 0.0009339147     4     3     7     1
 -0.0000000029     4     3     7     2
 0.2696762974     4     4     1     1
 -0.0000000101     4     4     1     2
 0.0000000029     4     4     1     7
 -0.0000000101     4     4     2     1
 0.2666059662     4     4     2     2
 0.0009339356     4     4     2     7
 0.2505110753     4     4     3     3
 0.2407569480     4     4     5     5
 0.0000000008     4     4     5     6
 0.0000000008     4     4     6     5
 0.2309276088     4     4     6     6
 0.0000000029     4     4     7     1
 0.0009339356     4     4     7     2
 0.1878703578     4     4     7     7
 0.0447582427     4     5     3     6
 -0.0000000008     4     5     5     3
 -0.2407569480     4     5     5     4
 0.0273693202     4     5     6     3
 -0.0000000008     4     5     6     4
 -0.0447582427     4     6     3     5
 -0.0175399783     4     6     5     3
 -0.0000000008     4     6     5     4
 0.0000000008     4     6     6     3
 -0.2309276088     4     6     6     4
 -0.0009339153     4     7     1     3
 -0.0000000029     4     7     1     4
 0.0000000029     4     7     2     3
 -0.0009339356     4     7     2     4
 -0.0000000005     4     7     3     1
 -0.1878703578     4     7     7     4
 -0.2607650616     5     1     1     5
 0.0000000130     5     1     1     6
 0.0000000130     5     1     2     5
 0.0028629331     5     1     2     6
 0.0007831708     5     1     6     2
 0.0000000014     5     1     6     7
 -0.0000000008     5     1     7     5
 0.0002535924     5     1     7     6
 0.0000000130     5     2     1     5
 0.0011734100     5     2     1     6
 -0.2567286980     5     2     2     5
 -0.0000000130     5     2     2     6
 -0.0007831708     5     2     6     1
 -0.0002536102     5     2     7     5
 -0.0000000008     5     2     7     6
 -0.2309276179     5     3     3     5
 0.0000000008     5     3     3     6
 -0.0000000008     5     3     4     5
 -0.0175399783     5     3     4     6
 -0.0447582427     5     3     6     4
 -0.0000000008     5     4     3     5
 0.0273693202     5     4     3     6
 -0.2407569480     5     4     4     5
 -0.0000000008     5     4     4     6
 0.0447582427     5     4     6     3
 0.2607650616     5     5     1     1
 -0.0000000130     5     5     1     2
 0.0000000008     5     5     1     7
 -0.0000000130     5     5     2     1
 0.2567286980     5     5     2     2
 0.0002536102     5     5     2     7
 0.2309276179     5     5     3     3
 0.0000000008     5     5     3     4
 0.0000000008     5     5     4     3
 0.2407569480     5     5     4     4
 0.2438347412     5     5     6     6
 0.0000000008     5     5     7     1
 0.0002536102     5     5     7     2
 0.1843810177     5     5     7     7
 -0.0000000130     5     6     1     1
 -0.0011734100     5     6     1     2
 -0.0002535911     5     6     1     7
 -0.0028629331     5     6     2     1
 0.0000000130     5     6     2     2
 0.0000000008     5     6     2     7
 -0.0000000008     5     6     3     3
 -0.0273693202     5     6     3     4
 0.0175399783     5     6     4     3
 0.0000000008     5     6     4     4
 -0.2438347412     5     6     6     5
 -0.0002535924     5     6     7     1
 0.0000000008     5     6     7     2
 -0.0000000008     5     7     1     5
 0.0002535911     5     7     1     6
 -0.0002536102     5     7     2     5
 -0.0000000008     5     7     2     6
 -0.0000000014     5     7     6     1
 -0.1843810177     5     7     7     5
 0.0000000130     6     1     1     5
 -0.2567287042     6     1     1     6
 0.0011734100     6     1     2     5
 -0.0000000130     6     1     2     6
 -0.0007831708     6     1     5     2
 -0.0000000014     6     1     5     7
 0.0002535911     6     1     7     5
 0.0000000008     6     1     7     6
 0.0028629331     6     2     1     5
 -0.0000000130     6     2     1     6
 -0.0000000130     6     2     2     5
 -0.2607650409     6     2     2     6
 0.0007831708     6     2     5     1
 -0.0000000008     6     2     7     5
 0.0002535740     6     2     7     6
 0.0000000008     6     3     3     5
 -0.2407569504     6     3     3     6
 0.0273693202     6     3     4     5
 0.0000000008     6     3     4     6
 0.0447582427     6     3     5     4
 -0.0175399783     6     4     3     5
 0.0000000008     6     4     3     6
 -0.0000000008     6     4     4     5
 -0.2309276088     6     4     4     6
 -0.0447582427     6     4     5     3
 -0.0000000130     6     5     1     1
 -0.0028629331     6     5     1     2
 -0.0002535924     6     5     1     7
 -0.0011734100     6     5     2     1
 0.0000000130     6     5     2     2
 0.0000000008     6     5     2     7
 -0.0000000008     6     5     3     3
 0.0175399783     6     5     3     4
 -0.0273693202     6     5     4     3
 0.0000000008     6     5     4     4
 -0.2438347412     6     5     5     6
 -0.0002535911     6     5     7     1
 0.0000000008     6     5     7     2
 0.2567287042     6     6     1     1
 0.0000000130     6     6     1     2
 -0.0000000008     6     6     1     7
 0.0000000130     6     6     2     1
 0.2607650409     6     6     2     2
 -0.0002535740     6     6     2     7
 0.2407569504     6     6     3     3
 -0.0000000008     6     6     3     4
 -0.0000000008     6     6     4     3
 0.2309276088     6     6     4     4
 0.2438347412     6     6     5     5
 -0.0000000008     6     6     7     1
 -0.0002535740     6     6     7     2
 0.1843810264     6     6     7     7
 0.0002535924     6     7     1     5
 0.0000000008     6     7     1     6
 -0.0000000008     6     7     2     5
 0.0002535740     6     7     2     6
 0.0000000014     6     7     5     1
 -0.1843810264     6     7     7     6
 -0.0000000199     7     1     1     2
 -0.1895715511     7     1     1     7
 -0.0000000029     7     1     3     3
 0.0009339153     7     1     3     4
 0.0009339147     7     1     4     3
 0.0000000029     7     1     4     4
 0.0000000008     7     1     5     5
 -0.0002535924     7     1     5     6
 -0.0002535911     7     1     6     5
 -0.0000000008     7     1     6     6
 0.0000000199     7     2     1     1
 -0.1895715630     7     2     2     7
 -0.0009338941     7     2     3     3
 -0.0000000029     7     2     3     4
 -0.0000000029     7     2     4     3
 0.0009339356     7     2     4     4
 0.0002536102     7     2     5     5
 0.0000000008     7     2     5     6
 0.0000000008     7     2     6     5