&FCI NORB= 13,NELEC= 14,MS2=0,
 ORBSYM=1,1,1,1,1,1,1,1,1,1,1,1,1
 ISYM=1,
&END
 0.2844720828     1     1     2     2
 0.0000000004     1     1     2     3
 -0.0010285833     1     1     2     4
 0.0000000024     1     1     2     5
 -0.0054414379     1     1     2    10
 0.0051797245     1     1     2    11
 0.0000000004     1     1     3     2
 0.6005809984     1     1     3     3
 -0.0000002642     1     1     3     4
 0.0204325590     1     1     3     5
 0.0000000885     1     1     3    10
 0.0000000397     1     1     3    11
 -0.0010285833     1     1     4     2
 -0.0000002642     1     1     4     3
 0.5984136936     1     1     4     4
 0.0000001241     1     1     4     5
 -0.0520281221     1     1     4    10
 -0.1138536728     1     1     4    11
 0.0000000024     1     1     5     2
 0.0204325590     1     1     5     3
 0.0000001241     1     1     5     4
 0.5887243891     1     1     5     5
 0.0000002463     1     1     5    10
 -0.0000001600     1     1     5    11
 0.5575896172     1     1     6     6
 -0.0000001893     1     1     6     8
 0.0000001773     1     1     6     9
 0.0840306125     1     1     6    12
 -0.1866805108     1     1     6    13
 0.5575896172     1     1     7     7
 -0.0000001773     1     1     7     8
 -0.0000001893     1     1     7     9
 0.1866805108     1     1     7    12
 0.0840306125     1     1     7    13
 -0.0000001893     1     1     8     6
 -0.0000001773     1     1     8     7
 0.5773287394     1     1     8     8
 -0.0000001760     1     1     8    12
 0.0000000734     1     1     8    13
 0.0000001773     1     1     9     6
 -0.0000001893     1     1     9     7
 0.5773287394     1     1     9     9
 -0.0000000734     1     1     9    12
 -0.0000001760     1     1     9    13
 -0.0054414379     1     1    10     2
 0.0000000885     1     1    10     3
 -0.0520281221     1     1    10     4
 0.0000002463     1     1    10     5
 0.6225437626     1     1    10    10
 -0.1833604025     1     1    10    11
 0.0051797245     1     1    11     2
 0.0000000397     1     1    11     3
 -0.1138536728     1     1    11     4
 -0.0000001600     1     1    11     5
 -0.1833604025     1     1    11    10
 0.5028013609     1     1    11    11
 0.0840306125     1     1    12     6
 0.1866805108     1     1    12     7
 -0.0000001760     1     1    12     8
 -0.0000000734     1     1    12     9
 0.5672059375     1     1    12    12
 -0.1866805108     1     1    13     6
 0.0840306125     1     1    13     7
 0.0000000734     1     1    13     8
 -0.0000001760     1     1    13     9
 0.5672059375     1     1    13    13
 -0.2844720828     1     2     2     1
 -0.0008194956     1     2     2     3
 -0.0000000005     1     2     2     4
 -0.0053605554     1     2     2     5
 -0.0000000024     1     2     2    10
 0.0000000023     1     2     2    11
 -0.0000000004     1     2     3     1
 -0.0000000003     1     2     3     3
 0.3011177001     1     2     3     4
 -0.1009327272     1     2     3    10
 -0.0450792300     1     2     3    11
 0.0010285833     1     2     4     1
 0.3011249949     1     2     4     3
 0.0000000003     1     2     4     4
 -0.1413582826     1     2     4     5
 -0.0000000001     1     2     4    10
 0.0000000002     1     2     4    11
 -0.0000000024     1     2     5     1
 -0.1414013314     1     2     5     4
 -0.0000000001     1     2     5     5
 -0.2807590066     1     2     5    10
 0.1822424878     1     2     5    11
 -0.0000000001     1     2     6     6
 0.2156791443     1     2     6     8
 -0.2020434610     1     2     6     9
 -0.0000000001     1     2     6    12
 0.0000000001     1     2     6    13
 -0.0000000001     1     2     7     7
 0.2020434610     1     2     7     8
 0.2156791443     1     2     7     9
 -0.0000000001     1     2     7    12
 -0.0000000001     1     2     7    13
 0.2156097855     1     2     8     6
 0.2019784873     1     2     8     7
 0.0000000001     1     2     8     8
 0.2003658757     1     2     8    12
 -0.0835506517     1     2     8    13
 -0.2019784873     1     2     9     6
 0.2156097855     1     2     9     7
 0.0000000001     1     2     9     9
 0.0835506517     1     2     9    12
 0.2003658757     1     2     9    13
 0.0054414379     1     2    10     1
 -0.1008961130     1     2    10     3
 -0.0000000001     1     2    10     4
 -0.2805550047     1     2    10     5
 0.0000000001     1     2    10    10
 -0.0051797245     1     2    11     1
 -0.0451146805     1     2    11     3
 0.0000000002     1     2    11     4
 0.1820459774     1     2    11     5
 -0.0000000005     1     2    11    11
 -0.0000000001     1     2    12     6
 -0.0000000001     1     2    12     7
 0.2004697898     1     2    12     8
 0.0835939829     1     2    12     9
 -0.0000000004     1     2    12    12
 0.0000000001     1     2    13     6
 -0.0000000001     1     2    13     7
 -0.0835939829     1     2    13     8
 0.2004697898     1     2    13     9
 -0.0000000004     1     2    13    13
 -0.0000000004     1     3     2     1
 0.0008194956     1     3     2     2
 -0.0000072948     1     3     2     4
 -0.0000366142     1     3     2    10
 0.0000354505     1     3     2    11
 -0.6005809984     1     3     3     1
 0.0000000003     1     3     3     2
 -0.0000000004     1     3     3     4
 -0.0056493025     1     3     3     5
 -0.0000000030     1     3     3    10
 0.0000000030     1     3     3    11
 0.0000002642     1     3     4     1
 -0.3011249949     1     3     4     2
 -0.0014042481     1     3     4     4
 -0.0000000026     1     3     4     5
 -0.0057988954     1     3     4    10
 0.0055579193     1     3     4    11
 -0.0204325590     1     3     5     1
 -0.0000000027     1     3     5     4
 -0.0195411925     1     3     5     5
 -0.0000000092     1     3     5    10
 0.0000000095     1     3     5    11
 -0.0169579926     1     3     6     6
 0.0000000061     1     3     6     8
 -0.0000000057     1     3     6     9
 -0.0093412892     1     3     6    12
 0.0207523971     1     3     6    13
 -0.0169579926     1     3     7     7
 0.0000000057     1     3     7     8
 0.0000000061     1     3     7     9
 -0.0207523971     1     3     7    12
 -0.0093412892     1     3     7    13
 0.0000000056     1     3     8     6
 0.0000000052     1     3     8     7
 -0.0182230997     1     3     8     8
 0.0000000092     1     3     8    12
 -0.0000000038     1     3     8    13
 -0.0000000052     1     3     9     6
 0.0000000056     1     3     9     7
 -0.0182230997     1     3     9     9
 0.0000000038     1     3     9    12
 0.0000000092     1     3     9    13
 -0.0000000885     1     3    10     1
 0.1008961130     1     3    10     2
 -0.0057316555     1     3    10     4
 -0.0000000079     1     3    10     5
 -0.0179747310     1     3    10    10
 0.0192475008     1     3    10    11
 -0.0000000397     1     3    11     1
 0.0451146805     1     3    11     2
 0.0042142887     1     3    11     4
 0.0000000060     1     3    11     5
 0.0135472811     1     3    11    10
 -0.0156079520     1     3    11    11
 -0.0059712270     1     3    12     6
 -0.0132655431     1     3    12     7
 0.0000000064     1     3    12     8
 0.0000000027     1     3    12     9
 -0.0194382288     1     3    12    12
 0.0132655431     1     3    13     6
 -0.0059712270     1     3    13     7
 -0.0000000027     1     3    13     8
 0.0000000064     1     3    13     9
 -0.0194382288     1     3    13    13
 0.0010285833     1     4     2     1
 0.0000000005     1     4     2     2
 0.0000072948     1     4     2     3
 0.0000430488     1     4     2     5
 0.0000002642     1     4     3     1
 -0.3011177001     1     4     3     2
 0.0000000004     1     4     3     3
 0.0000000001     1     4     3     5
 -0.0000672399     1     4     3    10
 0.0013436306     1     4     3    11
 -0.5984136936     1     4     4     1
 -0.0000000003     1     4     4     2
 0.0014042481     1     4     4     3
 0.0016040696     1     4     4     5
 0.0000000008     1     4     4    10
 -0.0000000014     1     4     4    11
 -0.0000001241     1     4     5     1
 0.1414013314     1     4     5     2
 0.0000000027     1     4     5     3
 0.0000000081     1     4     5     5
 0.0203681946     1     4     5    10
 -0.0192702394     1     4     5    11
 0.0000000076     1     4     6     6
 -0.0129670028     1     4     6     8
 0.0121472020     1     4     6     9
 0.0000000040     1     4     6    12
 -0.0000000089     1     4     6    13
 0.0000000076     1     4     7     7
 -0.0121472020     1     4     7     8
 -0.0129670028     1     4     7     9
 0.0000000089     1     4     7    12
 0.0000000040     1     4     7    13
 -0.0134911299     1     4     8     6
 -0.0126381927     1     4     8     7
 0.0000000091     1     4     8     8
 -0.0227855667     1     4     8    12
 0.0095013632     1     4     8    13
 0.0126381927     1     4     9     6
 -0.0134911299     1     4     9     7
 0.0000000091     1     4     9     9
 -0.0095013632     1     4     9    12
 -0.0227855667     1     4     9    13
 0.0520281221     1     4    10     1
 0.0000000001     1     4    10     2
 0.0057316555     1     4    10     3
 0.0187924768     1     4    10     5
 0.0000000101     1     4    10    10
 -0.0000000090     1     4    10    11
 0.1138536728     1     4    11     1
 -0.0000000002     1     4    11     2
 -0.0042142887     1     4    11     3
 -0.0130945822     1     4    11     5
 -0.0000000069     1     4    11    10
 0.0000000063     1     4    11    11
 0.0000000029     1     4    12     6
 0.0000000064     1     4    12     7
 -0.0157022519     1     4    12     8
 -0.0065476887     1     4    12     9
 0.0000000096     1     4    12    12
 -0.0000000064     1     4    13     6
 0.0000000029     1     4    13     7
 0.0065476887     1     4    13     8
 -0.0157022519     1     4    13     9
 0.0000000096     1     4    13    13
 -0.0000000024     1     5     2     1
 0.0053605554     1     5     2     2
 -0.0000430488     1     5     2     4
 -0.0002040019     1     5     2    10
 0.0001965104     1     5     2    11
 -0.0204325590     1     5     3     1
 0.0056493025     1     5     3     3
 -0.0000000001     1     5     3     4
 -0.0000000013     1     5     3    10
 0.0000000035     1     5     3    11
 -0.0000001241     1     5     4     1
 0.1413582826     1     5     4     2
 0.0000000026     1     5     4     3
 -0.0016040696     1     5     4     4
 0.0015757178     1     5     4    10
 -0.0061756572     1     5     4    11
 -0.5887243891     1     5     5     1
 0.0000000001     1     5     5     2
 0.0195411925     1     5     5     3
 -0.0000000081     1     5     5     4
 0.0000000009     1     5     5    10
 0.0000000016     1     5     5    11
 0.0058433954     1     5     6     6
 -0.0000000003     1     5     6     8
 0.0000000002     1     5     6     9
 0.0013924629     1     5     6    12
 -0.0030934641     1     5     6    13
 0.0058433954     1     5     7     7
 -0.0000000002     1     5     7     8
 -0.0000000003     1     5     7     9
 0.0030934641     1     5     7    12
 0.0013924629     1     5     7    13
 -0.0000000006     1     5     8     6
 -0.0000000005     1     5     8     7
 0.0057266647     1     5     8     8
 -0.0000000017     1     5     8    12
 0.0000000007     1     5     8    13
 0.0000000005     1     5     9     6
 -0.0000000006     1     5     9     7
 0.0057266647     1     5     9     9
 -0.0000000007     1     5     9    12
 -0.0000000017     1     5     9    13
 -0.0000002463     1     5    10     1
 0.2805550047     1     5    10     2
 0.0000000079     1     5    10     3
 -0.0187924768     1     5    10     4
 0.0132349701     1     5    10    10
 -0.0017567286     1     5    10    11
 0.0000001600     1     5    11     1
 -0.1820459774     1     5    11     2
 -0.0000000060     1     5    11     3
 0.0130945822     1     5    11     4
 -0.0084739680     1     5    11    10
 -0.0032612390     1     5    11    11
 0.0014917712     1     5    12     6
 0.0033140852     1     5    12     7
 -0.0000000012     1     5    12     8
 -0.0000000005     1     5    12     9
 0.0071425601     1     5    12    12
 -0.0033140852     1     5    13     6
 0.0014917712     1     5    13     7
 0.0000000005     1     5    13     8
 -0.0000000012     1     5    13     9
 0.0071425601     1     5    13    13
 0.0000693588     1     6     2     8
 -0.0000649737     1     6     2     9
 0.0000000005     1     6     3     8
 -0.0000000005     1     6     3     9
 -0.0033700622     1     6     3    12
 0.0074868540     1     6     3    13
 0.0005241271     1     6     4     8
 -0.0004909907     1     6     4     9
 0.0000000011     1     6     4    12
 -0.0000000025     1     6     4    13
 0.0000000003     1     6     5     8
 -0.0000000003     1     6     5     9
 -0.0000993083     1     6     5    12
 0.0002206211     1     6     5    13
 -0.5575896172     1     6     6     1
 0.0000000001     1     6     6     2
 0.0169579926     1     6     6     3
 -0.0000000076     1     6     6     4
 -0.0058433954     1     6     6     5
 0.0000000008     1     6     6    10
 0.0000000034     1     6     6    11
 0.0000001893     1     6     8     1
 -0.2156097855     1     6     8     2
 -0.0000000056     1     6     8     3
 0.0134911299     1     6     8     4
 0.0000000006     1     6     8     5
 -0.0057489053     1     6     8    10
 -0.0020405111     1     6     8    11
 -0.0000001773     1     6     9     1
 0.2019784873     1     6     9     2
 0.0000000052     1     6     9     3
 -0.0126381927     1     6     9     4
 -0.0000000005     1     6     9     5
 0.0053854476     1     6     9    10
 0.0019115058     1     6     9    11
 0.0001147518     1     6    10     8
 -0.0001074970     1     6    10     9
 -0.0000000003     1     6    10    12
 0.0000000009     1     6    10    13
 -0.0000448108     1     6    11     8
 0.0000419778     1     6    11     9
 0.0000000001     1     6    11    12
 -0.0000000003     1     6    11    13
 -0.0840306125     1     6    12     1
 0.0000000001     1     6    12     2
 0.0059712270     1     6    12     3
 -0.0000000029     1     6    12     4
 -0.0014917712     1     6    12     5
 0.0000000010     1     6    12    10
 0.0000000011     1     6    12    11
 0.1866805108     1     6    13     1
 -0.0000000001     1     6    13     2
 -0.0132655431     1     6    13     3
 0.0000000064     1     6    13     4
 0.0033140852     1     6    13     5
 -0.0000000021     1     6    13    10
 -0.0000000027     1     6    13    11
 0.0000649737     1     7     2     8
 0.0000693588     1     7     2     9
 0.0000000005     1     7     3     8
 0.0000000005     1     7     3     9
 -0.0074868540     1     7     3    12
 -0.0033700622     1     7     3    13
 0.0004909907     1     7     4     8
 0.0005241271     1     7     4     9
 0.0000000025     1     7     4    12
 0.0000000011     1     7     4    13
 0.0000000003     1     7     5     8
 0.0000000003     1     7     5     9
 -0.0002206211     1     7     5    12
 -0.0000993083     1     7     5    13
 -0.5575896172     1     7     7     1
 0.0000000001     1     7     7     2
 0.0169579926     1     7     7     3
 -0.0000000076     1     7     7     4
 -0.0058433954     1     7     7     5
 0.0000000008     1     7     7    10
 0.0000000034     1     7     7    11
 0.0000001773     1     7     8     1
 -0.2019784873     1     7     8     2
 -0.0000000052     1     7     8     3
 0.0126381927     1     7     8     4
 0.0000000005     1     7     8     5
 -0.0053854476     1     7     8    10
 -0.0019115058     1     7     8    11
 0.0000001893     1     7     9     1
 -0.2156097855     1     7     9     2
 -0.0000000056     1     7     9     3
 0.0134911299     1     7     9     4
 0.0000000006     1     7     9     5
 -0.0057489053     1     7     9    10
 -0.0020405111     1     7     9    11
 0.0001074970     1     7    10     8
 0.0001147518     1     7    10     9
 -0.0000000009     1     7    10    12
 -0.0000000003     1     7    10    13
 -0.0000419778     1     7    11     8
 -0.0000448108     1     7    11     9
 0.0000000003     1     7    11    12
 0.0000000001     1     7    11    13
 -0.1866805108     1     7    12     1
 0.0000000001     1     7    12     2
 0.0132655431     1     7    12     3
 -0.0000000064     1     7    12     4
 -0.0033140852     1     7    12     5
 0.0000000021     1     7    12    10
 0.0000000027     1     7    12    11
 -0.0840306125     1     7    13     1
 0.0000000001     1     7    13     2
 0.0059712270     1     7    13     3
 -0.0000000029     1     7    13     4
 -0.0014917712     1     7    13     5
 0.0000000010     1     7    13    10
 0.0000000011     1     7    13    11
 -0.0000693588     1     8     2     6
 -0.0000649737     1     8     2     7
 -0.0001039141     1     8     2    12
 0.0000433312     1     8     2    13
 -0.0000000005     1     8     3     6
 -0.0000000005     1     8     3     7
 0.0000000028     1     8     3    12
 -0.0000000011     1     8     3    13
 -0.0005241271     1     8     4     6
 -0.0004909907     1     8     4     7
 -0.0070833148     1     8     4    12
 0.0029536745     1     8     4    13
 -0.0000000003     1     8     5     6
 -0.0000000003     1     8     5     7
 -0.0000000005     1     8     5    12
 0.0000000002     1     8     5    13
 0.0000001893     1     8     6     1
 -0.2156791443     1     8     6     2
 -0.0000000061     1     8     6     3
 0.0129670028     1     8     6     4
 0.0000000003     1     8     6     5
 -0.0058636571     1     8     6    10
 -0.0019957003     1     8     6    11
 0.0000001773     1     8     7     1
 -0.2020434610     1     8     7     2
 -0.0000000057     1     8     7     3
 0.0121472020     1     8     7     4
 0.0000000002     1     8     7     5
 -0.0054929446     1     8     7    10
 -0.0018695280     1     8     7    11
 -0.5773287394     1     8     8     1
 -0.0000000001     1     8     8     2
 0.0182230997     1     8     8     3
 -0.0000000091     1     8     8     4
 -0.0057266647     1     8     8     5
 0.0000000019     1     8     8    10
 0.0000000030     1     8     8    11
 -0.0001147518     1     8    10     6
 -0.0001074970     1     8    10     7
 0.0018868936     1     8    10    12
 -0.0007868166     1     8    10    13
 0.0000448108     1     8    11     6
 0.0000419778     1     8    11     7
 -0.0005859425     1     8    11    12
 0.0002443325     1     8    11    13
 0.0000001760     1     8    12     1
 -0.2004697898     1     8    12     2
 -0.0000000064     1     8    12     3
 0.0157022519     1     8    12     4
 0.0000000012     1     8    12     5
 -0.0059382081     1     8    12    10
 -0.0058802842     1     8    12    11
 -0.0000000734     1     8    13     1
 0.0835939829     1     8    13     2
 0.0000000027     1     8    13     3
 -0.0065476887     1     8    13     4
 -0.0000000005     1     8    13     5
 0.0024761760     1     8    13    10
 0.0024520222     1     8    13    11
 0.0000649737     1     9     2     6
 -0.0000693588     1     9     2     7
 -0.0000433312     1     9     2    12
 -0.0001039141     1     9     2    13
 0.0000000005     1     9     3     6
 -0.0000000005     1     9     3     7
 0.0000000011     1     9     3    12
 0.0000000028     1     9     3    13
 0.0004909907     1     9     4     6
 -0.0005241271     1     9     4     7
 -0.0029536745     1     9     4    12
 -0.0070833148     1     9     4    13
 0.0000000003     1     9     5     6
 -0.0000000003     1     9     5     7
 -0.0000000002     1     9     5    12
 -0.0000000005     1     9     5    13
 -0.0000001773     1     9     6     1
 0.2020434610     1     9     6     2
 0.0000000057     1     9     6     3
 -0.0121472020     1     9     6     4
 -0.0000000002     1     9     6     5
 0.0054929446     1     9     6    10
 0.0018695280     1     9     6    11
 0.0000001893     1     9     7     1
 -0.2156791443     1     9     7     2
 -0.0000000061     1     9     7     3
 0.0129670028     1     9     7     4
 0.0000000003     1     9     7     5
 -0.0058636571     1     9     7    10
 -0.0019957003     1     9     7    11
 -0.5773287394     1     9     9     1
 -0.0000000001     1     9     9     2
 0.0182230997     1     9     9     3
 -0.0000000091     1     9     9     4
 -0.0057266647     1     9     9     5
 0.0000000019     1     9     9    10
 0.0000000030     1     9     9    11
 0.0001074970     1     9    10     6
 -0.0001147518     1     9    10     7
 0.0007868166     1     9    10    12
 0.0018868936     1     9    10    13
 -0.0000419778     1     9    11     6
 0.0000448108     1     9    11     7
 -0.0002443325     1     9    11    12
 -0.0005859425     1     9    11    13
 0.0000000734     1     9    12     1
 -0.0835939829     1     9    12     2
 -0.0000000027     1     9    12     3
 0.0065476887     1     9    12     4
 0.0000000005     1     9    12     5
 -0.0024761760     1     9    12    10
 -0.0024520222     1     9    12    11
 0.0000001760     1     9    13     1
 -0.2004697898     1     9    13     2
 -0.0000000064     1     9    13     3
 0.0157022519     1     9    13     4
 0.0000000012     1     9    13     5
 -0.0059382081     1     9    13    10
 -0.0058802842     1     9    13    11
 0.0054414379     1    10     2     1
 0.0000000024     1    10     2     2
 0.0000366142     1    10     2     3
 0.0002040019     1    10     2     5
 -0.0000000885     1    10     3     1
 0.1009327272     1    10     3     2
 0.0000000030     1    10     3     3
 0.0000672399     1    10     3     4
 0.0000000013     1    10     3     5
 0.0057002197     1    10     3    11
 0.0520281221     1    10     4     1
 0.0000000001     1    10     4     2
 0.0057988954     1    10     4     3
 -0.0000000008     1    10     4     4
 -0.0015757178     1    10     4     5
 -0.0000000021     1    10     4    11
 -0.0000002463     1    10     5     1
 0.2807590066     1    10     5     2
 0.0000000092     1    10     5     3
 -0.0203681946     1    10     5     4
 -0.0000000009     1    10     5     5
 0.0067172394     1    10     5    11
 -0.0000000008     1    10     6     6
 0.0058636571     1    10     6     8
 -0.0054929446     1    10     6     9
 -0.0000000013     1    10     6    12
 0.0000000030     1    10     6    13
 -0.0000000008     1    10     7     7
 0.0054929446     1    10     7     8
 0.0058636571     1    10     7     9
 -0.0000000030     1    10     7    12
 -0.0000000013     1    10     7    13
 0.0057489053     1    10     8     6
 0.0053854476     1    10     8     7
 -0.0000000019     1    10     8     8
 0.0078251017     1    10     8    12
 -0.0032629926     1    10     8    13
 -0.0053854476     1    10     9     6
 0.0057489053     1    10     9     7
 -0.0000000019     1    10     9     9
 0.0032629926     1    10     9    12
 0.0078251017     1    10     9    13
 -0.6225437626     1    10    10     1
 -0.0000000001     1    10    10     2
 0.0179747310     1    10    10     3
 -0.0000000101     1    10    10     4
 -0.0132349701     1    10    10     5
 0.0000000054     1    10    10    11
 0.1833604025     1    10    11     1
 -0.0135472811     1    10    11     3
 0.0000000069     1    10    11     4
 0.0084739680     1    10    11     5
 -0.0000000057     1    10    11    11
 -0.0000000010     1    10    12     6
 -0.0000000021     1    10    12     7
 0.0059382081     1    10    12     8
 0.0024761760     1    10    12     9
 -0.0000000020     1    10    12    12
 0.0000000021     1    10    13     6
 -0.0000000010     1    10    13     7
 -0.0024761760     1    10    13     8
 0.0059382081     1    10    13     9
 -0.0000000020     1    10    13    13
 -0.0051797245     1    11     2     1
 -0.0000000023     1    11     2     2
 -0.0000354505     1    11     2     3
 -0.0001965104     1    11     2     5
 -0.0000000397     1    11     3     1
 0.0450792300     1    11     3     2
 -0.0000000030     1    11     3     3
 -0.0013436306     1    11     3     4
 -0.0000000035     1    11     3     5
 -0.0057002197     1    11     3    10
 0.1138536728     1    11     4     1
 -0.0000000002     1    11     4     2
 -0.0055579193     1    11     4     3
 0.0000000014     1    11     4     4
 0.0061756572     1    11     4     5
 0.0000000021     1    11     4    10
 0.0000001600     1    11     5     1
 -0.1822424878     1    11     5     2
 -0.0000000095     1    11     5     3
 0.0192702394     1    11     5     4
 -0.0000000016     1    11     5     5
 -0.0067172394     1    11     5    10
 -0.0000000034     1    11     6     6
 0.0019957003     1    11     6     8
 -0.0018695280     1    11     6     9
 -0.0000000010     1    11     6    12
 0.0000000024     1    11     6    13
 -0.0000000034     1    11     7     7
 0.0018695280     1    11     7     8
 0.0019957003     1    11     7     9
 -0.0000000024     1    11     7    12
 -0.0000000010     1    11     7    13
 0.0020405111     1    11     8     6
 0.0019115058     1    11     8     7
 -0.0000000030     1    11     8     8
 0.0052943417     1    11     8    12
 -0.0022076897     1    11     8    13
 -0.0019115058     1    11     9     6
 0.0020405111     1    11     9     7
 -0.0000000030     1    11     9     9
 0.0022076897     1    11     9    12
 0.0052943417     1    11     9    13
 0.1833604025     1    11    10     1
 -0.0192475008     1    11    10     3
 0.0000000090     1    11    10     4
 0.0017567286     1    11    10     5
 -0.0000000054     1    11    10    10
 -0.5028013609     1    11    11     1
 0.0000000005     1    11    11     2
 0.0156079520     1    11    11     3
 -0.0000000063     1    11    11     4
 0.0032612390     1    11    11     5
 0.0000000057     1    11    11    10
 -0.0000000011     1    11    12     6
 -0.0000000027     1    11    12     7
 0.0058802842     1    11    12     8
 0.0024520222     1    11    12     9
 -0.0000000049     1    11    12    12
 0.0000000027     1    11    13     6
 -0.0000000011     1    11    13     7
 -0.0024520222     1    11    13     8
 0.0058802842     1    11    13     9
 -0.0000000049     1    11    13    13
 0.0001039141     1    12     2     8
 0.0000433312     1    12     2     9
 0.0033700622     1    12     3     6
 0.0074868540     1    12     3     7
 -0.0000000028     1    12     3     8
 -0.0000000011     1    12     3     9
 -0.0000000011     1    12     4     6
 -0.0000000025     1    12     4     7
 0.0070833148     1    12     4     8
 0.0029536745     1    12     4     9
 0.0000993083     1    12     5     6
 0.0002206211     1    12     5     7
 0.0000000005     1    12     5     8
 0.0000000002     1    12     5     9
 -0.0840306125     1    12     6     1
 0.0000000001     1    12     6     2
 0.0093412892     1    12     6     3
 -0.0000000040     1    12     6     4
 -0.0013924629     1    12     6     5
 0.0000000013     1    12     6    10
 0.0000000010     1    12     6    11
 -0.1866805108     1    12     7     1
 0.0000000001     1    12     7     2
 0.0207523971     1    12     7     3
 -0.0000000089     1    12     7     4
 -0.0030934641     1    12     7     5
 0.0000000030     1    12     7    10
 0.0000000024     1    12     7    11
 0.0000001760     1    12     8     1
 -0.2003658757     1    12     8     2
 -0.0000000092     1    12     8     3
 0.0227855667     1    12     8     4
 0.0000000017     1    12     8     5
 -0.0078251017     1    12     8    10
 -0.0052943417     1    12     8    11
 0.0000000734     1    12     9     1
 -0.0835506517     1    12     9     2
 -0.0000000038     1    12     9     3
 0.0095013632     1    12     9     4
 0.0000000007     1    12     9     5
 -0.0032629926     1    12     9    10
 -0.0022076897     1    12     9    11
 0.0000000003     1    12    10     6
 0.0000000009     1    12    10     7
 -0.0018868936     1    12    10     8
 -0.0007868166     1    12    10     9
 -0.0000000001     1    12    11     6
 -0.0000000003     1    12    11     7
 0.0005859425     1    12    11     8
 0.0002443325     1    12    11     9
 -0.5672059375     1    12    12     1
 0.0000000004     1    12    12     2
 0.0194382288     1    12    12     3
 -0.0000000096     1    12    12     4
 -0.0071425601     1    12    12     5
 0.0000000020     1    12    12    10
 0.0000000049     1    12    12    11
 -0.0000433312     1    13     2     8
 0.0001039141     1    13     2     9
 -0.0074868540     1    13     3     6
 0.0033700622     1    13     3     7
 0.0000000011     1    13     3     8
 -0.0000000028     1    13     3     9
 0.0000000025     1    13     4     6
 -0.0000000011     1    13     4     7
 -0.0029536745     1    13     4     8
 0.0070833148     1    13     4     9
 -0.0002206211     1    13     5     6
 0.0000993083     1    13     5     7
 -0.0000000002     1    13     5     8
 0.0000000005     1    13     5     9
 0.1866805108     1    13     6     1
 -0.0000000001     1    13     6     2
 -0.0207523971     1    13     6     3
 0.0000000089     1    13     6     4
 0.0030934641     1    13     6     5
 -0.0000000030     1    13     6    10
 -0.0000000024     1    13     6    11
 -0.0840306125     1    13     7     1
 0.0000000001     1    13     7     2
 0.0093412892     1    13     7     3
 -0.0000000040     1    13     7     4
 -0.0013924629     1    13     7     5
 0.0000000013     1    13     7    10
 0.0000000010     1    13     7    11
 -0.0000000734     1    13     8     1
 0.0835506517     1    13     8     2
 0.0000000038     1    13     8     3
 -0.0095013632     1    13     8     4
 -0.0000000007     1    13     8     5
 0.0032629926     1    13     8    10
 0.0022076897     1    13     8    11
 0.0000001760     1    13     9     1
 -0.2003658757     1    13     9     2
 -0.0000000092     1    13     9     3
 0.0227855667     1    13     9     4
 0.0000000017     1    13     9     5
 -0.0078251017     1    13     9    10
 -0.0052943417     1    13     9    11