&FCI NORB= 19,NELEC= 14,MS2=0,
 ORBSYM=1,1,1,1,1,1,1,1,1,1,1,1,1,1,1,1,1,1,1
 ISYM=1,
&END
 0.1790994148     1     1     2     2
 -0.0001094835     1     1     2     4
 -0.0020951136     1     1     2    10
 0.0017145495     1     1     2    16
 -0.0016685199     1     1     2    18
 0.5466841379     1     1     3     3
 -0.0000000013     1     1     3     4
 0.0019947325     1     1     3     5
 0.0000000001     1     1     3    10
 0.0785832635     1     1     3    11
 0.0000000003     1     1     3    16
 0.1437616294     1     1     3    17
 0.0000000003     1     1     3    18
 -0.0001094835     1     1     4     2
 -0.0000000013     1     1     4     3
 0.5512273480     1     1     4     4
 0.0000000002     1     1     4     5
 -0.0208431535     1     1     4    10
 -0.0000000003     1     1     4    11
 -0.1242165548     1     1     4    16
 -0.0000000005     1     1     4    17
 -0.1050118480     1     1     4    18
 0.0019947325     1     1     5     3
 0.0000000002     1     1     5     4
 0.5086554098     1     1     5     5
 0.0000000012     1     1     5    10
 0.1680083871     1     1     5    11
 -0.0000000001     1     1     5    14
 0.0000000001     1     1     5    15
 -0.0000000005     1     1     5    16
 -0.1029144640     1     1     5    17
 0.0000000004     1     1     5    18
 0.5168649809     1     1     6     6
 -0.0000000012     1     1     6     8
 0.0000000002     1     1     6     9
 0.0001307637     1     1     6    12
 -0.2038795949     1     1     6    13
 0.0000000006     1     1     6    14
 -0.0000000003     1     1     6    15
 0.0000000001     1     1     6    16
 -0.0000000001     1     1     6    18
 0.5168649809     1     1     7     7
 0.0000000002     1     1     7     8
 0.0000000012     1     1     7     9
 -0.2038795949     1     1     7    12
 -0.0001307637     1     1     7    13
 -0.0000000006     1     1     7    14
 -0.0000000005     1     1     7    15
 -0.0000000012     1     1     8     6
 0.0000000002     1     1     8     7
 0.5235922416     1     1     8     8
 -0.0000000001     1     1     8    11
 0.0000000007     1     1     8    13
 -0.1727615305     1     1     8    14
 0.1098284854     1     1     8    15
 0.0000000001     1     1     8    17
 0.0000000002     1     1     9     6
 0.0000000012     1     1     9     7
 0.5235922416     1     1     9     9
 -0.0000000006     1     1     9    12
 -0.0000000003     1     1     9    13
 -0.1098284854     1     1     9    14
 -0.1727615305     1     1     9    15
 -0.0020951136     1     1    10     2
 0.0000000001     1     1    10     3
 -0.0208431535     1     1    10     4
 0.0000000012     1     1    10     5
 0.5410237641     1     1    10    10
 0.0000000007     1     1    10    11
 -0.0000000001     1     1    10    13
 -0.1449502894     1     1    10    16
 -0.0000000003     1     1    10    17
 0.1414302259     1     1    10    18
 0.0785832635     1     1    11     3
 -0.0000000003     1     1    11     4
 0.1680083871     1     1    11     5
 -0.0000000001     1     1    11     8
 0.0000000007     1     1    11    10
 0.5316535927     1     1    11    11
 -0.0000000004     1     1    11    16
 -0.0204768138     1     1    11    17
 0.0000000009     1     1    11    18
 0.0001307637     1     1    12     6
 -0.2038795949     1     1    12     7
 -0.0000000006     1     1    12     9
 0.5083657346     1     1    12    12
 0.0000000008     1     1    12    14
 0.0000000008     1     1    12    15
 -0.2038795949     1     1    13     6
 -0.0001307637     1     1    13     7
 0.0000000007     1     1    13     8
 -0.0000000003     1     1    13     9
 -0.0000000001     1     1    13    10
 0.5083657346     1     1    13    13
 -0.0000000008     1     1    13    14
 0.0000000008     1     1    13    15
 -0.0000000001     1     1    14     5
 0.0000000006     1     1    14     6
 -0.0000000006     1     1    14     7
 -0.1727615305     1     1    14     8
 -0.1098284854     1     1    14     9
 0.0000000008     1     1    14    12
 -0.0000000008     1     1    14    13
 0.5040986042     1     1    14    14
 0.0000000001     1     1    15     5
 -0.0000000003     1     1    15     6
 -0.0000000005     1     1    15     7
 0.1098284854     1     1    15     8
 -0.1727615305     1     1    15     9
 0.0000000008     1     1    15    12
 0.0000000008     1     1    15    13
 0.5040986042     1     1    15    15
 0.0017145495     1     1    16     2
 0.0000000003     1     1    16     3
 -0.1242165548     1     1    16     4
 -0.0000000005     1     1    16     5
 0.0000000001     1     1    16     6
 -0.1449502894     1     1    16    10
 -0.0000000004     1     1    16    11
 0.4632902091     1     1    16    16
 0.0000000010     1     1    16    17
 -0.0284197179     1     1    16    18
 0.1437616294     1     1    17     3
 -0.0000000005     1     1    17     4
 -0.1029144640     1     1    17     5
 0.0000000001     1     1    17     8
 -0.0000000003     1     1    17    10
 -0.0204768138     1     1    17    11
 0.0000000010     1     1    17    16
 0.4456628204     1     1    17    17
 0.0000000002     1     1    17    18
 -0.0016685199     1     1    18     2
 0.0000000003     1     1    18     3
 -0.1050118480     1     1    18     4
 0.0000000004     1     1    18     5
 -0.0000000001     1     1    18     6
 0.1414302259     1     1    18    10
 0.0000000009     1     1    18    11
 -0.0284197179     1     1    18    16
 0.0000000002     1     1    18    17
 0.4902279854     1     1    18    18
 0.4719060275     1     1    19    19
 -0.1790994148     1     2     2     1
 -0.0000365362     1     2     2     3
 -0.0019974069     1     2     2     5
 -0.0021613579     1     2     2    11
 0.0011082282     1     2     2    17
 0.3698287793     1     2     3     4
 -0.0184712598     1     2     3    10
 -0.1095638874     1     2     3    16
 -0.1116124375     1     2     3    18
 0.0001094835     1     2     4     1
 0.3698288597     1     2     4     3
 -0.0452550908     1     2     4     5
 0.0771599346     1     2     4    11
 0.1478670592     1     2     4    17
 -0.0452581713     1     2     5     4
 0.0000000004     1     2     5     6
 -0.3347871071     1     2     5    10
 -0.0000000001     1     2     5    13
 0.1398083620     1     2     5    16
 -0.1095585313     1     2     5    18
 0.0000000004     1     2     6     5
 0.0000000002     1     2     6     6
 0.0000000006     1     2     6     7
 0.3400283955     1     2     6     8
 -0.0540581623     1     2     6     9
 0.0000000001     1     2     6    11
 -0.0000000002     1     2     6    12
 -0.0000000001     1     2     6    13
 -0.1462704593     1     2     6    14
 0.1293109853     1     2     6    15
 0.0000000006     1     2     7     6
 -0.0000000002     1     2     7     7
 -0.0540581623     1     2     7     8
 -0.3400283955     1     2     7     9
 0.0000000001     1     2     7    12
 -0.0000000002     1     2     7    13
 0.1293109853     1     2     7    14
 0.1462704593     1     2     7    15
 0.3400050300     1     2     8     6
 -0.0540544477     1     2     8     7
 0.0000000006     1     2     8     9
 0.0000000004     1     2     8    10
 0.0326866467     1     2     8    12
 -0.2047535520     1     2     8    13
 -0.0000000001     1     2     8    14
 -0.0000000002     1     2     8    15
 -0.0000000001     1     2     8    16
 0.0000000001     1     2     8    18
 -0.0540544477     1     2     9     6
 -0.3400050300     1     2     9     7
 0.0000000006     1     2     9     8
 -0.0000000001     1     2     9    10
 0.2047535520     1     2     9    12
 0.0326866467     1     2     9    13
 -0.0000000002     1     2     9    14
 0.0000000001     1     2     9    15
 0.0020951136     1     2    10     1
 -0.0184696817     1     2    10     3
 -0.3347403466     1     2    10     5
 0.0000000004     1     2    10     8
 -0.0000000001     1     2    10     9
 -0.2247243410     1     2    10    11
 -0.0000000001     1     2    10    14
 0.0000000001     1     2    10    15
 0.0734311610     1     2    10    17
 0.0771566282     1     2    11     4
 0.0000000001     1     2    11     6
 -0.2247755299     1     2    11    10
 0.1255903406     1     2    11    16
 -0.2752469018     1     2    11    18
 -0.0000000002     1     2    12     6
 0.0000000001     1     2    12     7
 0.0326908475     1     2    12     8
 0.2047798664     1     2    12     9
 0.0000000001     1     2    12    13
 -0.2205191019     1     2    12    14
 -0.2491185887     1     2    12    15
 -0.0000000001     1     2    13     5
 -0.0000000001     1     2    13     6
 -0.0000000002     1     2    13     7
 -0.2047798664     1     2    13     8
 0.0326908475     1     2    13     9
 0.0000000001     1     2    13    12
 0.2491185887     1     2    13    14
 -0.2205191019     1     2    13    15
 -0.1462492398     1     2    14     6
 0.1292922261     1     2    14     7
 -0.0000000001     1     2    14     8
 -0.0000000002     1     2    14     9
 -0.0000000001     1     2    14    10
 -0.2204979254     1     2    14    12
 0.2490946657     1     2    14    13
 0.0000000001     1     2    14    14
 0.0000000001     1     2    14    15
 0.1292922261     1     2    15     6
 0.1462492398     1     2    15     7
 -0.0000000002     1     2    15     8
 0.0000000001     1     2    15     9
 0.0000000001     1     2    15    10
 -0.2490946657     1     2    15    12
 -0.2204979254     1     2    15    13
 0.0000000001     1     2    15    14
 -0.0000000001     1     2    15    15
 -0.0017145495     1     2    16     1
 -0.1095651306     1     2    16     3
 0.1397709443     1     2    16     5
 -0.0000000001     1     2    16     8
 0.1255494473     1     2    16    11
 -0.2901012632     1     2    16    17
 0.1478688054     1     2    17     4
 0.0734577732     1     2    17    10
 -0.2901225713     1     2    17    16
 -0.0592128331     1     2    17    18
 0.0016685199     1     2    18     1
 -0.1116113059     1     2    18     3
 -0.1095219356     1     2    18     5
 0.0000000001     1     2    18     8
 -0.2752068178     1     2    18    11
 -0.0592336963     1     2    18    17
 0.0000365362     1     3     2     2
 -0.0000000804     1     3     2     4
 -0.0000015781     1     3     2    10
 0.0000012432     1     3     2    16
 -0.0000011316     1     3     2    18
 -0.5466841379     1     3     3     1
 -0.0011872698     1     3     3     5
 -0.0017020818     1     3     3    11
 0.0001989717     1     3     3    17
 0.0000000013     1     3     4     1
 -0.3698288597     1     3     4     2
 -0.0001218533     1     3     4     4
 -0.0018873710     1     3     4    10
 0.0019948459     1     3     4    16
 -0.0010661659     1     3     4    18
 -0.0019947325     1     3     5     1
 -0.0172798516     1     3     5     5
 -0.0202918142     1     3     5    11
 0.0104399301     1     3     5    17
 -0.0183897362     1     3     6     6
 -0.0000146966     1     3     6    12
 0.0229141632     1     3     6    13
 -0.0183897362     1     3     7     7
 0.0229141632     1     3     7    12
 0.0000146966     1     3     7    13
 -0.0187027737     1     3     8     8
 0.0192575910     1     3     8    14
 -0.0122424942     1     3     8    15
 -0.0187027737     1     3     9     9
 0.0122424942     1     3     9    14
 0.0192575910     1     3     9    15
 -0.0000000001     1     3    10     1
 0.0184696817     1     3    10     2
 -0.0010414846     1     3    10     4
 -0.0194854950     1     3    10    10
 0.0167127224     1     3    10    16
 -0.0159378997     1     3    10    18
 -0.0785832635     1     3    11     1
 -0.0137432681     1     3    11     5
 -0.0167065178     1     3    11    11
 0.0083232827     1     3    11    17
 -0.0000098933     1     3    12     6
 0.0154250568     1     3    12     7
 -0.0198230940     1     3    12    12
 0.0154250568     1     3    13     6
 0.0000098933     1     3    13     7
 -0.0198230940     1     3    13    13
 0.0131213321     1     3    14     8
 0.0083415331     1     3    14     9
 -0.0195813671     1     3    14    14
 -0.0083415331     1     3    15     8
 0.0131213321     1     3    15     9
 -0.0195813671     1     3    15    15
 -0.0000000003     1     3    16     1
 0.1095651306     1     3    16     2
 0.0006259434     1     3    16     4
 0.0115233617     1     3    16    10
 -0.0105895411     1     3    16    16
 0.0094181621     1     3    16    18
 -0.1437616294     1     3    17     1
 0.0067045074     1     3    17     5
 0.0078578931     1     3    17    11
 -0.0047124020     1     3    17    17
 -0.0000000003     1     3    18     1
 0.1116113059     1     3    18     2
 -0.0005404607     1     3    18     4
 -0.0104702877     1     3    18    10
 0.0090257377     1     3    18    16
 -0.0092281576     1     3    18    18
 -0.0027438401     1     3    19    19
 0.0001094835     1     4     2     1
 0.0000000804     1     4     2     3
 0.0000030805     1     4     2     5
 0.0000033064     1     4     2    11
 -0.0000017462     1     4     2    17
 0.0000000013     1     4     3     1
 -0.3698287793     1     4     3     2
 -0.0008458864     1     4     3    10
 0.0013689025     1     4     3    16
 -0.0005257052     1     4     3    18
 -0.5512273480     1     4     4     1
 0.0001218533     1     4     4     3
 -0.0000125497     1     4     4     5
 0.0000320173     1     4     4    11
 -0.0006742018     1     4     4    17
 -0.0000000002     1     4     5     1
 0.0452581713     1     4     5     2
 0.0184261643     1     4     5    10
 -0.0154695043     1     4     5    16
 0.0154396358     1     4     5    18
 -0.0183654737     1     4     6     8
 0.0029197672     1     4     6     9
 0.0170505866     1     4     6    14
 -0.0150736393     1     4     6    15
 0.0029197672     1     4     7     8
 0.0183654737     1     4     7     9
 -0.0150736393     1     4     7    14
 -0.0170505866     1     4     7    15
 -0.0185756850     1     4     8     6
 0.0029531869     1     4     8     7
 -0.0037047558     1     4     8    12
 0.0232070890     1     4     8    13
 0.0029531869     1     4     9     6
 0.0185756850     1     4     9     7
 -0.0232070890     1     4     9    12
 -0.0037047558     1     4     9    13
 0.0208431535     1     4    10     1
 0.0010414846     1     4    10     3
 0.0184375849     1     4    10     5
 0.0221139131     1     4    10    11
 -0.0105991426     1     4    10    17
 0.0000000003     1     4    11     1
 -0.0771566282     1     4    11     2
 0.0155321396     1     4    11    10
 -0.0129442662     1     4    11    16
 0.0137107216     1     4    11    18
 -0.0025317041     1     4    12     8
 -0.0158589351     1     4    12     9
 0.0133654665     1     4    12    14
 0.0150988559     1     4    12    15
 0.0158589351     1     4    13     8
 -0.0025317041     1     4    13     9
 -0.0150988559     1     4    13    14
 0.0133654665     1     4    13    15
 0.0115633692     1     4    14     6
 -0.0102226428     1     4    14     7
 0.0131309149     1     4    14    12
 -0.0148338849     1     4    14    13
 -0.0102226428     1     4    15     6
 -0.0115633692     1     4    15     7
 0.0148338849     1     4    15    12
 0.0131309149     1     4    15    13
 0.1242165548     1     4    16     1
 -0.0006259434     1     4    16     3
 -0.0105996973     1     4    16     5
 -0.0128685295     1     4    16    11
 0.0064383382     1     4    16    17
 0.0000000005     1     4    17     1
 -0.1478688054     1     4    17     2
 -0.0074876741     1     4    17    10
 0.0066748907     1     4    17    16
 -0.0061441529     1     4    17    18
 0.1050118480     1     4    18     1
 0.0005404607     1     4    18     3
 0.0096272689     1     4    18     5
 0.0121999111     1     4    18    11
 -0.0052056066     1     4    18    17
 0.0019974069     1     5     2     2
 -0.0000030805     1     5     2     4
 -0.0000467605     1     5     2    10
 0.0000374177     1     5     2    16
 -0.0000365957     1     5     2    18
 -0.0019947325     1     5     3     1
 0.0011872698     1     5     3     3
 -0.0065485461     1     5     3    11
 0.0037354227     1     5     3    17
 -0.0000000002     1     5     4     1
 0.0452550908     1     5     4     2
 0.0000125497     1     5     4     4
 -0.0000114206     1     5     4    10
 -0.0048698070     1     5     4    16
 0.0058123669     1     5     4    18
 -0.5086554098     1     5     5     1
 0.0172798516     1     5     5     3
 0.0033311666     1     5     5    11
 0.0085100258     1     5     5    17
 -0.0000000004     1     5     6     2
 0.0018819909     1     5     6     6
 0.0000006384     1     5     6    12
 -0.0009952564     1     5     6    13
 0.0018819909     1     5     7     7
 -0.0009952564     1     5     7    12
 -0.0000006384     1     5     7    13
 0.0019061497     1     5     8     8
 -0.0013144119     1     5     8    14
 0.0008356019     1     5     8    15
 0.0019061497     1     5     9     9
 -0.0008356019     1     5     9    14
 -0.0013144119     1     5     9    15
 -0.0000000012     1     5    10     1
 0.3347403466     1     5    10     2
 -0.0184375849     1     5    10     4
 0.0041386031     1     5    10    10
 0.0054308615     1     5    10    16
 0.0097624297     1     5    10    18
 -0.1680083871     1     5    11     1
 0.0137432681     1     5    11     3
 0.0105305630     1     5    11    11
 0.0106062326     1     5    11    17
 0.0000007206     1     5    12     6
 -0.0011234749     1     5    12     7
 0.0024274496     1     5    12    12
 0.0000000001     1     5    13     2
 -0.0011234749     1     5    13     6
 -0.0000007206     1     5    13     7
 0.0024274496     1     5    13    13
 0.0000000001     1     5    14     1
 -0.0008671516     1     5    14     8
 -0.0005512683     1     5    14     9
 0.0019093410     1     5    14    14
 -0.0000000001     1     5    15     1
 0.0005512683     1     5    15     8
 -0.0008671516     1     5    15     9
 0.0019093410     1     5    15    15
 0.0000000005     1     5    16     1
 -0.1397709443     1     5    16     2
 0.0105996973     1     5    16     4
 -0.0017493363     1     5    16    10
 -0.0073522185     1     5    16    16
 -0.0071568585     1     5    16    18
 0.1029144640     1     5    17     1
 -0.0067045074     1     5    17     3
 -0.0019063190     1     5    17    11
 -0.0061152948     1     5    17    17
 -0.0000000004     1     5    18     1
 0.1095219356     1     5    18     2
 -0.0096272689     1     5    18     4
 0.0014434469     1     5    18    10
 0.0063466896     1     5    18    16
 0.0093436607     1     5    18    18
 0.0010410557     1     5    19    19
 0.0000233655     1     6     2     8
 -0.0000037146     1     6     2     9
 -0.0000212195     1     6     2    14
 0.0000187592     1     6     2    15
 -0.0000048033     1     6     3    12
 0.0074891064     1     6     3    13
 0.0002102113     1     6     4     8
 -0.0000334197     1     6     4     9
 0.0054872174     1     6     4    14
 -0.0048509965     1     6     4    15
 -0.0000000004     1     6     5     2
 -0.0000000822     1     6     5    12
 0.0001282185     1     6     5    13
 -0.5168649809     1     6     6     1
 -0.0000000002     1     6     6     2
 0.0183897362     1     6     6     3
 -0.0018819909     1     6     6     5
 0.0041030800     1     6     6    11
 0.0096781277     1     6     6    17
 0.0022698813     1     6     6    19
 -0.0000000006     1     6     7     2
 0.0067736611     1     6     7    19
 0.0000000012     1     6     8     1
 -0.3400050300     1     6     8     2
 0.0185756850     1     6     8     4
 -0.0024108127     1     6     8    10
 -0.0065732463     1     6     8    16
 -0.0074607550     1     6     8    18
 -0.0000000002     1     6     9     1
 0.0540544477     1     6     9     2
 -0.0029531869     1     6     9     4
 0.0003832742     1     6     9    10
 0.0010450233     1     6     9    16
 0.0011861207     1     6     9    18
 0.0000092225     1     6    10     8
 -0.0000014662     1     6    10     9
 -0.0002605300     1     6    10    14
 0.0002303225     1     6    10    15
 -0.0000000001     1     6    11     2
 0.0000005588     1     6    11    12
 -0.0008711936     1     6    11    13
 -0.0001307637     1     6    12     1
 0.0000000002     1     6    12     2
 0.0000098933     1     6    12     3
 -0.0000007206     1     6    12     5
 0.0000049891     1     6    12    11
 0.0000088590     1     6    12    17
 -0.0034153421     1     6    12    19
 0.2038795949     1     6    13     1
 0.0000000001     1     6    13     2
 -0.0154250568     1     6    13     3
 0.0011234749     1     6    13     5
 -0.0077786264     1     6    13    11
 -0.0138125197     1     6    13    17
 -0.0011469320     1     6    13    19
 -0.0000000006     1     6    14     1
 0.1462492398     1     6    14     2
 -0.0115633692     1     6    14     4
 0.0010291315     1     6    14    10
 0.0082440010     1     6    14    16
 0.0082781543     1     6    14    18
 0.0000000003     1     6    15     1
 -0.1292922261     1     6    15     2
 0.0102226428     1     6    15     4
 -0.0009098079     1     6    15    10
 -0.0072881421     1     6    15    16
 -0.0073183355     1     6    15    18
 -0.0000000001     1     6    16     1
 0.0000309264     1     6    16     8
 -0.0000049167     1     6    16     9
 0.0010636481     1     6    16    14
 -0.0009403224     1     6    16    15
 0.0000013464     1     6    17    12
 -0.0020992944     1     6    17    13
 0.0000000001     1     6    18     1
 0.0001757110     1     6    18     8
 -0.0000279347     1     6    18     9
 0.0017494222     1     6    18    14
 -0.0015465837     1     6    18    15
 0.0055356298     1     6    19    12
 0.0018589619     1     6    19    13
 -0.0000037146     1     7     2     8
 -0.0000233655     1     7     2     9
 0.0000187592     1     7     2    14
 0.0000212195     1     7     2    15
 0.0074891064     1     7     3    12
 0.0000048033     1     7     3    13
 -0.0000334197     1     7     4     8
 -0.0002102113     1     7     4     9
 -0.0048509965     1     7     4    14
 -0.0054872174     1     7     4    15
 0.0001282185     1     7     5    12
 0.0000000822     1     7     5    13
 -0.0000000006     1     7     6     2
 0.0067736611     1     7     6    19
 -0.5168649809     1     7     7     1
 0.0000000002     1     7     7     2
 0.0183897362     1     7     7     3
 -0.0018819909     1     7     7     5
 0.0041030800     1     7     7    11
 0.0096781277     1     7     7    17
 -0.0022698813     1     7     7    19
 -0.0000000002     1     7     8     1
 0.0540544477     1     7     8     2
 -0.0029531869     1     7     8     4
 0.0003832742     1     7     8    10
 0.0010450233     1     7     8    16
 0.0011861207     1     7     8    18
 -0.0000000012     1     7     9     1
 0.3400050300     1     7     9     2
 -0.0185756850     1     7     9     4
 0.0024108127     1     7     9    10
 0.0065732463     1     7     9    16
 0.0074607550     1     7     9    18
 -0.0000014662     1     7    10     8
 -0.0000092225     1     7    10     9
 0.0002303225     1     7    10    14
 0.0002605300     1     7    10    15
 -0.0008711936     1     7    11    12
 -0.0000005588     1     7    11    13
 0.2038795949     1     7    12     1
 -0.0000000001     1     7    12     2
 -0.0154250568     1     7    12     3
 0.0011234749     1     7    12     5
 -0.0077786264     1     7    12    11
 -0.0138125197     1     7    12    17
 0.0011469320     1     7    12    19
 0.0001307637     1     7    13     1
 0.0000000002     1     7    13     2
 -0.0000098933     1     7    13     3
 0.0000007206     1     7    13     5
 -0.0000049891     1     7    13    11
 -0.0000088590     1     7    13    17
 -0.0034153421     1     7    13    19
 0.0000000006     1     7    14     1
 -0.1292922261     1     7    14     2
 0.0102226428     1     7    14     4
 -0.0009098079     1     7    14    10
 -0.0072881421     1     7    14    16
 -0.0073183355     1     7    14    18
 0.0000000005     1     7    15     1
 -0.1462492398     1     7    15     2
 0.0115633692     1     7    15     4
 -0.0010291315     1     7    15    10
 -0.0082440010     1     7    15    16
 -0.0082781543     1     7    15    18
 -0.0000049167     1     7    16     8
 -0.0000309264     1     7    16     9
 -0.0009403224     1     7    16    14
 -0.0010636481     1     7    16    15
 -0.0020992944     1     7    17    12
 -0.0000013464     1     7    17    13
 -0.0000279347     1     7    18     8
 -0.0001757110     1     7    18     9
 -0.0015465837     1     7    18    14
 -0.0017494222     1     7    18    15
 -0.0018589619     1     7    19    12
 0.0055356298     1     7    19    13
 -0.0000233655     1     8     2     6
 0.0000037146     1     8     2     7
 -0.0000042008     1     8     2    12
 0.0000263144     1     8     2    13
 0.0061362589     1     8     3    14
 -0.0039009611     1     8     3    15
 -0.0002102113     1     8     4     6
 0.0000334197     1     8     4     7
 -0.0011730517     1     8     4    12
 0.0073481539     1     8     4    13
 -0.0004472603     1     8     5    14
 0.0002843336     1     8     5    15
 0.0000000012     1     8     6     1
 -0.3400283955     1     8     6     2
 0.0183654737     1     8     6     4
 -0.0024200352     1     8     6    10
 -0.0066041727     1     8     6    16
 -0.0076364660     1     8     6    18
 -0.0000000002     1     8     7     1
 0.0540581623     1     8     7     2
 -0.0029197672     1     8     7     4
 0.0003847404     1     8     7    10
 0.0010499400     1     8     7    16
 0.0012140554     1     8     7    18
 -0.5235922416     1     8     8     1
 0.0187027737     1     8     8     3
 -0.0019061497     1     8     8     5
 0.0047687511     1     8     8    11
 0.0100364809     1     8     8    17
 0.0000574765     1     8     8    19
 -0.0000000006     1     8     9     2
 -0.0071668001     1     8     9    19
 -0.0000000004     1     8    10     2
 -0.0000092225     1     8    10     6
 0.0000014662     1     8    10     7
 0.0000773053     1     8    10    12
 -0.0004842505     1     8    10    13
 0.0000000001     1     8    11     1
 -0.0003004674     1     8    11    14
 0.0001910140     1     8    11    15
 -0.0326908475     1     8    12     2
 0.0025317041     1     8    12     4
 -0.0002412607     1     8    12    10
 -0.0017080646     1     8    12    16
 -0.0017519417     1     8    12    18
 -0.0000000007     1     8    13     1
 0.2047798664     1     8    13     2
 -0.0158589351     1     8    13     4
 0.0015112898     1     8    13    10
 0.0106995466     1     8    13    16
 0.0109743983     1     8    13    18
 0.1727615305     1     8    14     1
 0.0000000001     1     8    14     2
 -0.0131213321     1     8    14     3
 0.0008671516     1     8    14     5
 -0.0061240868     1     8    14    11
 -0.0117710428     1     8    14    17
 0.0018608262     1     8    14    19
 -0.1098284854     1     8    15     1
 0.0000000002     1     8    15     2
 0.0083415331     1     8    15     3
 -0.0005512683     1     8    15     5
 0.0038932230     1     8    15    11
 0.0074831232     1     8    15    17
 0.0029796143     1     8    15    19
 0.0000000001     1     8    16     2
 -0.0000309264     1     8    16     6
 0.0000049167     1     8    16     7
 -0.0002102244     1     8    16    12
 0.0013168739     1     8    16    13
 -0.0000000001     1     8    17     1
 -0.0014318192     1     8    17    14
 0.0009102405     1     8    17    15
 -0.0000000001     1     8    18     2
 -0.0001757110     1     8    18     6
 0.0000279347     1     8    18     7
 -0.0003437602     1     8    18    12
 0.0021533597     1     8    18    13
 -0.0030665645     1     8    19    14
 -0.0049102806     1     8    19    15
 0.0000037146     1     9     2     6
 0.0000233655     1     9     2     7
 -0.0000263144     1     9     2    12
 -0.0000042008     1     9     2    13
 0.0039009611     1     9     3    14
 0.0061362589     1     9     3    15
 0.0000334197     1     9     4     6
 0.0002102113     1     9     4     7
 -0.0073481539     1     9     4    12
 -0.0011730517     1     9     4    13
 -0.0002843336     1     9     5    14
 -0.0004472603     1     9     5    15
 -0.0000000002     1     9     6     1
 0.0540581623     1     9     6     2
 -0.0029197672     1     9     6     4
 0.0003847404     1     9     6    10
 0.0010499400     1     9     6    16
 0.0012140554     1     9     6    18
 -0.0000000012     1     9     7     1
 0.3400283955     1     9     7     2
 -0.0183654737     1     9     7     4
 0.0024200352     1     9     7    10
 0.0066041727     1     9     7    16
 0.0076364660     1     9     7    18
 -0.0000000006     1     9     8     2
 -0.0071668001     1     9     8    19
 -0.5235922416     1     9     9     1
 0.0187027737     1     9     9     3
 -0.0019061497     1     9     9     5
 0.0047687511     1     9     9    11
 0.0100364809     1     9     9    17
 -0.0000574765     1     9     9    19
 0.0000000001     1     9    10     2
 0.0000014662     1     9    10     6
 0.0000092225     1     9    10     7
 0.0004842505     1     9    10    12
 0.0000773053     1     9    10    13
 -0.0001910140     1     9    11    14
 -0.0003004674     1     9    11    15
 0.0000000006     1     9    12     1
 -0.2047798664     1     9    12     2
 0.0158589351     1     9    12     4
 -0.0015112898     1     9    12    10
 -0.0106995466     1     9    12    16
 -0.0109743983     1     9    12    18
 0.0000000003     1     9    13     1
 -0.0326908475     1     9    13     2
 0.0025317041     1     9    13     4
 -0.0002412607     1     9    13    10
 -0.0017080646     1     9    13    16
 -0.0017519417     1     9    13    18
 0.1098284854     1     9    14     1
 0.0000000002     1     9    14     2
 -0.0083415331     1     9    14     3
 0.0005512683     1     9    14     5
 -0.0038932230     1     9    14    11