&FCI NORB= 13,NELEC= 14,MS2=0,
 ORBSYM=1,1,1,1,1,1,1,1,1,1,1,1,1
 ISYM=1,
&END
 0.2417942507     1     1     2     2
 -0.0004894835     1     1     2     4
 0.0038521858     1     1     2    10
 -0.0036962289     1     1     2    13
 0.5731678449     1     1     3     3
 -0.0000000065     1     1     3     4
 -0.0134583606     1     1     3     5
 -0.0000000010     1     1     3    10
 -0.0000000013     1     1     3    13
 -0.0004894835     1     1     4     2
 -0.0000000065     1     1     4     3
 0.5819846898     1     1     4     4
 -0.0000000018     1     1     4     5
 0.0360508366     1     1     4    10
 0.1106553132     1     1     4    13
 -0.0134583606     1     1     5     3
 -0.0000000018     1     1     5     4
 0.5724034990     1     1     5     5
 0.0000000058     1     1     5    10
 -0.0000000031     1     1     5    13
 0.5402710635     1     1     6     6
 -0.0000000056     1     1     6     8
 -0.0000000008     1     1     6     9
 -0.1449725601     1     1     6    11
 0.1215125715     1     1     6    12
 0.5402710635     1     1     7     7
 0.0000000008     1     1     7     8
 -0.0000000056     1     1     7     9
 0.1215125715     1     1     7    11
 0.1449725601     1     1     7    12
 -0.0000000056     1     1     8     6
 0.0000000008     1     1     8     7
 0.5578044030     1     1     8     8
 0.0000000035     1     1     8    11
 -0.0000000022     1     1     8    12
 -0.0000000008     1     1     9     6
 -0.0000000056     1     1     9     7
 0.5578044030     1     1     9     9
 -0.0000000022     1     1     9    11
 -0.0000000035     1     1     9    12
 0.0038521858     1     1    10     2
 -0.0000000010     1     1    10     3
 0.0360508366     1     1    10     4
 0.0000000058     1     1    10     5
 0.5932840633     1     1    10    10
 -0.1669672636     1     1    10    13
 -0.1449725601     1     1    11     6
 0.1215125715     1     1    11     7
 0.0000000035     1     1    11     8
 -0.0000000022     1     1    11     9
 0.5448211489     1     1    11    11
 0.1215125715     1     1    12     6
 0.1449725601     1     1    12     7
 -0.0000000022     1     1    12     8
 -0.0000000035     1     1    12     9
 0.5448211489     1     1    12    12
 -0.0036962289     1     1    13     2
 -0.0000000013     1     1    13     3
 0.1106553132     1     1    13     4
 -0.0000000031     1     1    13     5
 -0.1669672636     1     1    13    10
 0.4876529112     1     1    13    13
 -0.2417942507     1     2     2     1
 -0.0003837107     1     2     2     3
 0.0038938939     1     2     2     5
 0.0000000001     1     2     2    10
 0.3315667213     1     2     3     4
 0.0558492120     1     2     3    10
 0.0681778623     1     2     3    13
 0.0004894835     1     2     4     1
 0.3315807081     1     2     4     3
 0.0943942533     1     2     4     5
 0.0944074756     1     2     5     4
 -0.2997285365     1     2     5    10
 0.1606005103     1     2     5    13
 0.2924751195     1     2     6     8
 0.0406889044     1     2     6     9
 -0.0406889043     1     2     7     8
 0.2924751194     1     2     7     9
 0.2924328907     1     2     8     6
 -0.0406830295     1     2     8     7
 -0.1822008283     1     2     8    11
 0.1140677590     1     2     8    12
 0.0406830296     1     2     9     6
 0.2924328907     1     2     9     7
 0.1140677590     1     2     9    11
 0.1822008283     1     2     9    12
 -0.0038521858     1     2    10     1
 0.0558373175     1     2    10     3
 -0.2996084776     1     2    10     5
 -0.1822491318     1     2    11     8
 0.1140979996     1     2    11     9
 0.1140979996     1     2    12     8
 0.1822491318     1     2    12     9
 0.0036962289     1     2    13     1
 0.0681733012     1     2    13     3
 0.1604848827     1     2    13     5
 0.0003837107     1     3     2     2
 -0.0000097974     1     3     2     4
 0.0000119508     1     3     2    10
 0.0000000733     1     3     2    13
 -0.5731678449     1     3     3     1
 0.0034490985     1     3     3     5
 -0.0000000001     1     3     3    13
 0.0000000065     1     3     4     1
 -0.3315807081     1     3     4     2
 -0.0006928006     1     3     4     4
 0.0040712867     1     3     4    10
 -0.0036778469     1     3     4    13
 0.0134583606     1     3     5     1
 -0.0200912771     1     3     5     5
 -0.0000000002     1     3     5    10
 0.0000000002     1     3     5    13
 -0.0174359789     1     3     6     6
 0.0000000001     1     3     6     8
 0.0167881750     1     3     6    11
 -0.0140714513     1     3     6    12
 -0.0174359789     1     3     7     7
 0.0000000001     1     3     7     9
 -0.0140714513     1     3     7    11
 -0.0167881750     1     3     7    12
 0.0000000001     1     3     8     6
 -0.0179701385     1     3     8     8
 -0.0000000002     1     3     8    11
 0.0000000001     1     3     8    12
 0.0000000001     1     3     9     7
 -0.0179701385     1     3     9     9
 0.0000000001     1     3     9    11
 0.0000000002     1     3     9    12
 0.0000000010     1     3    10     1
 -0.0558373175     1     3    10     2
 0.0030679418     1     3    10     4
 -0.0000000001     1     3    10     5
 -0.0188579577     1     3    10    10
 0.0181136929     1     3    10    13
 0.0105064863     1     3    11     6
 -0.0088062884     1     3    11     7
 -0.0000000002     1     3    11     8
 -0.0192954415     1     3    11    11
 -0.0088062884     1     3    12     6
 -0.0105064863     1     3    12     7
 0.0000000002     1     3    12     9
 -0.0192954415     1     3    12    12
 0.0000000013     1     3    13     1
 -0.0681733012     1     3    13     2
 -0.0022586142     1     3    13     4
 0.0000000002     1     3    13     5
 0.0128365251     1     3    13    10
 -0.0134695991     1     3    13    13
 0.0004894835     1     4     2     1
 0.0000097974     1     4     2     3
 -0.0000147405     1     4     2     5
 0.0000000065     1     4     3     1
 -0.3315667213     1     4     3     2
 0.0009742771     1     4     3    10
 -0.0014012628     1     4     3    13
 -0.5819846898     1     4     4     1
 0.0006928006     1     4     4     3
 -0.0007998692     1     4     4     5
 0.0000000018     1     4     5     1
 -0.0944074756     1     4     5     2
 0.0000000002     1     4     5     5
 0.0195902919     1     4     5    10
 -0.0178164129     1     4     5    13
 0.0000000002     1     4     6     6
 -0.0174135009     1     4     6     8
 -0.0024225522     1     4     6     9
 -0.0000000001     1     4     6    11
 0.0000000001     1     4     6    12
 0.0000000002     1     4     7     7
 0.0024225522     1     4     7     8
 -0.0174135009     1     4     7     9
 0.0000000001     1     4     7    11
 0.0000000001     1     4     7    12
 -0.0168272315     1     4     8     6
 0.0023409910     1     4     8     7
 0.0000000002     1     4     8     8
 0.0196126470     1     4     8    11
 -0.0122785978     1     4     8    12
 -0.0023409910     1     4     9     6
 -0.0168272315     1     4     9     7
 0.0000000002     1     4     9     9
 -0.0122785978     1     4     9    11
 -0.0196126470     1     4     9    12
 -0.0360508366     1     4    10     1
 -0.0030679418     1     4    10     3
 0.0183135732     1     4    10     5
 0.0000000002     1     4    10    10
 -0.0000000001     1     4    10    13
 -0.0000000001     1     4    11     6
 0.0000000001     1     4    11     7
 0.0139694664     1     4    11     8
 -0.0087456558     1     4    11     9
 0.0000000002     1     4    11    11
 0.0000000001     1     4    12     6
 0.0000000001     1     4    12     7
 -0.0087456558     1     4    12     8
 -0.0139694664     1     4    12     9
 0.0000000002     1     4    12    12
 -0.1106553132     1     4    13     1
 0.0022586142     1     4    13     3
 -0.0118097017     1     4    13     5
 -0.0000000001     1     4    13    10
 0.0000000002     1     4    13    13
 -0.0038938939     1     5     2     2
 0.0000147405     1     5     2     4
 -0.0001209217     1     5     2    10
 0.0001098194     1     5     2    13
 0.0134583606     1     5     3     1
 -0.0034490985     1     5     3     3
 -0.0000000001     1     5     3    10
 0.0000000018     1     5     4     1
 -0.0943942533     1     5     4     2
 0.0007998692     1     5     4     4
 0.0009624204     1     5     4    10
 -0.0055325372     1     5     4    13
 -0.5724034990     1     5     5     1
 0.0200912771     1     5     5     3
 -0.0000000002     1     5     5     4
 -0.0037967902     1     5     6     6
 0.0013477667     1     5     6    11
 -0.0011296662     1     5     6    12
 -0.0037967902     1     5     7     7
 -0.0011296662     1     5     7    11
 -0.0013477667     1     5     7    12
 -0.0035697712     1     5     8     8
 -0.0035697712     1     5     9     9
 -0.0000000058     1     5    10     1
 0.2996084776     1     5    10     2
 0.0000000001     1     5    10     3
 -0.0183135732     1     5    10     4
 -0.0090144286     1     5    10    10
 -0.0018363698     1     5    10    13
 0.0014841698     1     5    11     6
 -0.0012439960     1     5    11     7
 -0.0046339926     1     5    11    11
 -0.0012439960     1     5    12     6
 -0.0014841698     1     5    12     7
 -0.0046339926     1     5    12    12
 0.0000000031     1     5    13     1
 -0.1604848827     1     5    13     2
 -0.0000000002     1     5    13     3
 0.0118097017     1     5    13     4
 0.0049387683     1     5    13    10
 0.0059504977     1     5    13    13
 0.0000508535     1     6     2     8
 0.0000070747     1     6     2     9
 0.0059230908     1     6     3    11
 -0.0049645946     1     6     3    12
 -0.0003005361     1     6     4     8
 -0.0000418103     1     6     4     9
 -0.0002396481     1     6     5    11
 0.0002008673     1     6     5    12
 -0.5402710635     1     6     6     1
 0.0174359789     1     6     6     3
 -0.0000000002     1     6     6     4
 0.0037967902     1     6     6     5
 0.0000000056     1     6     8     1
 -0.2924328907     1     6     8     2
 -0.0000000001     1     6     8     3
 0.0168272315     1     6     8     4
 0.0052818480     1     6     8    10
 0.0041456603     1     6     8    13
 0.0000000008     1     6     9     1
 -0.0406830296     1     6     9     2
 0.0023409910     1     6     9     4
 0.0007348065     1     6     9    10
 0.0005767410     1     6     9    13
 0.0000276450     1     6    10     8
 0.0000038460     1     6    10     9
 0.1449725601     1     6    11     1
 -0.0105064863     1     6    11     3
 0.0000000001     1     6    11     4
 -0.0014841698     1     6    11     5
 -0.1215125715     1     6    12     1
 0.0088062884     1     6    12     3
 -0.0000000001     1     6    12     4
 0.0012439960     1     6    12     5
 0.0000590781     1     6    13     8
 0.0000082189     1     6    13     9
 -0.0000070747     1     7     2     8
 0.0000508535     1     7     2     9
 -0.0049645946     1     7     3    11
 -0.0059230908     1     7     3    12
 0.0000418103     1     7     4     8
 -0.0003005361     1     7     4     9
 0.0002008673     1     7     5    11
 0.0002396481     1     7     5    12
 -0.5402710635     1     7     7     1
 0.0174359789     1     7     7     3
 -0.0000000002     1     7     7     4
 0.0037967902     1     7     7     5
 -0.0000000008     1     7     8     1
 0.0406830295     1     7     8     2
 -0.0023409910     1     7     8     4
 -0.0007348065     1     7     8    10
 -0.0005767410     1     7     8    13
 0.0000000056     1     7     9     1
 -0.2924328907     1     7     9     2
 -0.0000000001     1     7     9     3
 0.0168272315     1     7     9     4
 0.0052818480     1     7     9    10
 0.0041456603     1     7     9    13
 -0.0000038460     1     7    10     8
 0.0000276450     1     7    10     9
 -0.1215125715     1     7    11     1
 0.0088062884     1     7    11     3
 -0.0000000001     1     7    11     4
 0.0012439960     1     7    11     5
 -0.1449725601     1     7    12     1
 0.0105064863     1     7    12     3
 -0.0000000001     1     7    12     4
 0.0014841698     1     7    12     5
 -0.0000082189     1     7    13     8
 0.0000590781     1     7    13     9
 -0.0000508535     1     8     2     6
 0.0000070747     1     8     2     7
 0.0000483001     1     8     2    11
 -0.0000302386     1     8     2    12
 0.0000000001     1     8     3    12
 0.0003005361     1     8     4     6
 -0.0000418103     1     8     4     7
 0.0054024324     1     8     4    11
 -0.0033822204     1     8     4    12
 0.0000000056     1     8     6     1
 -0.2924751195     1     8     6     2
 -0.0000000001     1     8     6     3
 0.0174135009     1     8     6     4
 0.0055544315     1     8     6    10
 0.0041538748     1     8     6    13
 -0.0000000008     1     8     7     1
 0.0406889043     1     8     7     2
 -0.0024225522     1     8     7     4
 -0.0007727280     1     8     7    10
 -0.0005778838     1     8     7    13
 -0.5578044030     1     8     8     1
 0.0179701385     1     8     8     3
 -0.0000000002     1     8     8     4
 0.0035697712     1     8     8     5
 -0.0000276450     1     8    10     6
 0.0000038460     1     8    10     7
 0.0011837203     1     8    10    11
 -0.0007410742     1     8    10    12
 -0.0000000035     1     8    11     1
 0.1822491318     1     8    11     2
 0.0000000002     1     8    11     3
 -0.0139694664     1     8    11     4
 -0.0034694551     1     8    11    10
 -0.0069009510     1     8    11    13
 0.0000000022     1     8    12     1
 -0.1140979996     1     8    12     2
 0.0087456558     1     8    12     4
 0.0021720701     1     8    12    10
 0.0043203756     1     8    12    13
 -0.0000590781     1     8    13     6
 0.0000082189     1     8    13     7
 -0.0006655268     1     8    13    11
 0.0004166565     1     8    13    12
 -0.0000070747     1     9     2     6
 -0.0000508535     1     9     2     7
 -0.0000302386     1     9     2    11
 -0.0000483001     1     9     2    12
 0.0000000001     1     9     3    11
 0.0000418103     1     9     4     6
 0.0003005361     1     9     4     7
 -0.0033822204     1     9     4    11
 -0.0054024324     1     9     4    12
 0.0000000008     1     9     6     1
 -0.0406889044     1     9     6     2
 0.0024225522     1     9     6     4
 0.0007727280     1     9     6    10
 0.0005778838     1     9     6    13
 0.0000000056     1     9     7     1
 -0.2924751194     1     9     7     2
 -0.0000000001     1     9     7     3
 0.0174135009     1     9     7     4
 0.0055544315     1     9     7    10
 0.0041538748     1     9     7    13
 -0.5578044030     1     9     9     1
 0.0179701385     1     9     9     3
 -0.0000000002     1     9     9     4
 0.0035697712     1     9     9     5
 -0.0000038460     1     9    10     6
 -0.0000276450     1     9    10     7
 -0.0007410742     1     9    10    11
 -0.0011837203     1     9    10    12
 0.0000000022     1     9    11     1
 -0.1140979996     1     9    11     2
 0.0087456558     1     9    11     4
 0.0021720701     1     9    11    10
 0.0043203756     1     9    11    13
 0.0000000035     1     9    12     1
 -0.1822491318     1     9    12     2
 -0.0000000002     1     9    12     3
 0.0139694664     1     9    12     4
 0.0034694551     1     9    12    10
 0.0069009510     1     9    12    13
 -0.0000082189     1     9    13     6
 -0.0000590781     1     9    13     7
 0.0004166565     1     9    13    11
 0.0006655268     1     9    13    12
 -0.0038521858     1    10     2     1
 -0.0000000001     1    10     2     2
 -0.0000119508     1    10     2     3
 0.0001209217     1    10     2     5
 0.0000000010     1    10     3     1
 -0.0558492120     1    10     3     2
 -0.0009742771     1    10     3     4
 0.0000000001     1    10     3     5
 0.0050980959     1    10     3    13
 -0.0360508366     1    10     4     1
 -0.0040712867     1    10     4     3
 -0.0009624204     1    10     4     5
 -0.0000000058     1    10     5     1
 0.2997285365     1    10     5     2
 0.0000000002     1    10     5     3
 -0.0195902919     1    10     5     4
 -0.0070089499     1    10     5    13
 -0.0055544315     1    10     6     8
 -0.0007727280     1    10     6     9
 0.0007727280     1    10     7     8
 -0.0055544315     1    10     7     9
 -0.0052818480     1    10     8     6
 0.0007348065     1    10     8     7
 0.0047184378     1    10     8    11
 -0.0029540021     1    10     8    12
 -0.0007348065     1    10     9     6
 -0.0052818480     1    10     9     7
 -0.0029540021     1    10     9    11
 -0.0047184378     1    10     9    12
 -0.5932840633     1    10    10     1
 0.0188579577     1    10    10     3
 -0.0000000002     1    10    10     4
 0.0090144286     1    10    10     5
 -0.0000000001     1    10    10    13
 0.0034694551     1    10    11     8
 -0.0021720701     1    10    11     9
 -0.0021720701     1    10    12     8
 -0.0034694551     1    10    12     9
 0.1669672636     1    10    13     1
 -0.0128365251     1    10    13     3
 0.0000000001     1    10    13     4
 -0.0049387683     1    10    13     5
 0.0000000001     1    10    13    13
 -0.0000483001     1    11     2     8
 0.0000302386     1    11     2     9
 -0.0059230908     1    11     3     6
 0.0049645946     1    11     3     7
 -0.0000000001     1    11     3     9
 -0.0054024324     1    11     4     8
 0.0033822204     1    11     4     9
 0.0002396481     1    11     5     6
 -0.0002008673     1    11     5     7
 0.1449725601     1    11     6     1
 -0.0167881750     1    11     6     3
 0.0000000001     1    11     6     4
 -0.0013477667     1    11     6     5
 -0.1215125715     1    11     7     1
 0.0140714513     1    11     7     3
 -0.0000000001     1    11     7     4
 0.0011296662     1    11     7     5
 -0.0000000035     1    11     8     1
 0.1822008283     1    11     8     2
 0.0000000002     1    11     8     3
 -0.0196126470     1    11     8     4
 -0.0047184378     1    11     8    10
 -0.0063287876     1    11     8    13
 0.0000000022     1    11     9     1
 -0.1140677590     1    11     9     2
 -0.0000000001     1    11     9     3
 0.0122785978     1    11     9     4
 0.0029540021     1    11     9    10
 0.0039621698     1    11     9    13
 -0.0011837203     1    11    10     8
 0.0007410742     1    11    10     9
 -0.5448211489     1    11    11     1
 0.0192954415     1    11    11     3
 -0.0000000002     1    11    11     4
 0.0046339926     1    11    11     5
 -0.0000000001     1    11    11    13
 0.0006655268     1    11    13     8
 -0.0004166565     1    11    13     9
 0.0000302386     1    12     2     8
 0.0000483001     1    12     2     9
 0.0049645946     1    12     3     6
 0.0059230908     1    12     3     7
 -0.0000000001     1    12     3     8
 0.0033822204     1    12     4     8
 0.0054024324     1    12     4     9
 -0.0002008673     1    12     5     6
 -0.0002396481     1    12     5     7
 -0.1215125715     1    12     6     1
 0.0140714513     1    12     6     3
 -0.0000000001     1    12     6     4
 0.0011296662     1    12     6     5
 -0.1449725601     1    12     7     1
 0.0167881750     1    12     7     3
 -0.0000000001     1    12     7     4
 0.0013477667     1    12     7     5
 0.0000000022     1    12     8     1
 -0.1140677590     1    12     8     2
 -0.0000000001     1    12     8     3
 0.0122785978     1    12     8     4
 0.0029540021     1    12     8    10
 0.0039621698     1    12     8    13
 0.0000000035     1    12     9     1
 -0.1822008283     1    12     9     2
 -0.0000000002     1    12     9     3
 0.0196126470     1    12     9     4
 0.0047184378     1    12     9    10
 0.0063287876     1    12     9    13
 0.0007410742     1    12    10     8
 0.0011837203     1    12    10     9
 -0.5448211489     1    12    12     1
 0.0192954415     1    12    12     3
 -0.0000000002     1    12    12     4
 0.0046339926     1    12    12     5
 -0.0000000001     1    12    12    13
 -0.0004166565     1    12    13     8
 -0.0006655268     1    12    13     9
 0.0036962289     1    13     2     1
 -0.0000000733     1    13     2     3
 -0.0001098194     1    13     2     5
 0.0000000013     1    13     3     1
 -0.0681778623     1    13     3     2
 0.0000000001     1    13     3     3
 0.0014012628     1    13     3     4
 -0.0050980959     1    13     3    10
 -0.1106553132     1    13     4     1
 0.0036778469     1    13     4     3
 0.0055325372     1    13     4     5
 0.0000000031     1    13     5     1
 -0.1606005103     1    13     5     2
 -0.0000000002     1    13     5     3
 0.0178164129     1    13     5     4
 0.0070089499     1    13     5    10
 -0.0041538748     1    13     6     8
 -0.0005778838     1    13     6     9
 0.0005778838     1    13     7     8
 -0.0041538748     1    13     7     9
 -0.0041456603     1    13     8     6
 0.0005767410     1    13     8     7
 0.0063287876     1    13     8    11
 -0.0039621698     1    13     8    12
 -0.0005767410     1    13     9     6
 -0.0041456603     1    13     9     7
 -0.0039621698     1    13     9    11
 -0.0063287876     1    13     9    12
 0.1669672636     1    13    10     1
 -0.0181136929     1    13    10     3
 0.0000000001     1    13    10     4
 0.0018363698     1    13    10     5
 0.0000000001     1    13    10    10
 0.0069009510     1    13    11     8
 -0.0043203756     1    13    11     9
 0.0000000001     1    13    11    11
 -0.0043203756     1    13    12     8
 -0.0069009510     1    13    12     9
 0.0000000001     1    13    12    12
 -0.4876529112     1    13    13     1
 0.0134695991     1    13    13     3
 -0.0000000002     1    13    13     4
 -0.0059504977     1    13    13     5
 -0.0000000001     1    13    13    10
 -0.2417942507     2     1     1     2
 0.0004894835     2     1     1     4
 -0.0038521858     2     1     1    10
 0.0036962289     2     1     1    13
 -0.0003837107     2     1     3     2
 0.3315807081     2     1     3     4
 0.0558373175     2     1     3    10
 0.0681733012     2     1     3    13
 0.3315667213     2     1     4     3
 0.0944074756     2     1     4     5
 0.0038938939     2     1     5     2
 0.0943942533     2     1     5     4
 -0.2996084776     2     1     5    10
 0.1604848827     2     1     5    13
 0.2924328907     2     1     6     8
 0.0406830296     2     1     6     9
 -0.0406830295     2     1     7     8
 0.2924328907     2     1     7     9
 0.2924751195     2     1     8     6
 -0.0406889043     2     1     8     7
 -0.1822491318     2     1     8    11
 0.1140979996     2     1     8    12
 0.0406889044     2     1     9     6
 0.2924751194     2     1     9     7
 0.1140979996     2     1     9    11
 0.1822491318     2     1     9    12
 0.0000000001     2     1    10     2
 0.0558492120     2     1    10     3
 -0.2997285365     2     1    10     5
 -0.1822008283     2     1    11     8
 0.1140677590     2     1    11     9
 0.1140677590     2     1    12     8
 0.1822008283     2     1    12     9
 0.0681778623     2     1    13     3
 0.1606005103     2     1    13     5
 0.2417942507     2     2     1     1
 0.0003837107     2     2     1     3
 -0.0038938939     2     2     1     5
 -0.0000000001     2     2     1    10
 0.0003837107     2     2     3     1
 0.5731647109     2     2     3     3
 0.0000000065     2     2     3     4
 -0.0134694674     2     2     3     5
 0.0000000010     2     2     3    10
 0.0000000013     2     2     3    13
 0.0000000065     2     2     4     3
 0.5819876772     2     2     4     4
 0.0000000018     2     2     4     5
 0.0360618032     2     2     4    10
 0.1106233704     2     2     4    13
 -0.0038938939     2     2     5     1
 -0.0134694674     2     2     5     3
 0.0000000018     2     2     5     4
 0.5725333233     2     2     5     5
 -0.0000000058     2     2     5    10
 0.0000000031     2     2     5    13
 0.5403335850     2     2     6     6
 0.0000000056     2     2     6     8
 0.0000000008     2     2     6     9
 -0.1450205367     2     2     6    11
 0.1215527844     2     2     6    12
 0.5403335850     2     2     7     7
 -0.0000000008     2     2     7     8
 0.0000000056     2     2     7     9
 0.1215527844     2     2     7    11
 0.1450205367     2     2     7    12
 0.0000000056     2     2     8     6
 -0.0000000008     2     2     8     7
 0.5577606217     2     2     8     8
 -0.0000000035     2     2     8    11
 0.0000000022     2     2     8    12
 0.0000000008     2     2     9     6
 0.0000000056     2     2     9     7
 0.5577606217     2     2     9     9
 0.0000000022     2     2     9    11
 0.0000000035     2     2     9    12
 -0.0000000001     2     2    10     1
 0.0000000010     2     2    10     3
 0.0360618032     2     2    10     4
 -0.0000000058     2     2    10     5
 0.5931718125     2     2    10    10
 -0.1668728423     2     2    10    13
 -0.1450205367     2     2    11     6
 0.1215527844     2     2    11     7
 -0.0000000035     2     2    11     8
 0.0000000022     2     2    11     9
 0.5449033740     2     2    11    11
 0.1215527844     2     2    12     6
 0.1450205367     2     2    12     7
 0.0000000022     2     2    12     8
 0.0000000035     2     2    12     9
 0.5449033740     2     2    12    12
 0.0000000013     2     2    13     3
 0.1106233704     2     2    13     4
 0.0000000031     2     2    13     5
 -0.1668728423     2     2    13    10
 0.4875615263     2     2    13    13
 -0.0003837107     2     3     1     2
 0.0000097974     2     3     1     4
 -0.0000119508     2     3     1    10
 -0.0000000733     2     3     1    13
 -0.5731647109     2     3     3     2
 0.0003313326     2     3     3     4
 -0.0035943662     2     3     3    10
 0.0035926680     2     3     3    13
 -0.3315667213     2     3     4     1
 -0.0000000065     2     3     4     2
 -0.0040993457     2     3     4     5
 0.0134694674     2     3     5     2
 -0.0034788952     2     3     5     4
 -0.0000000002     2     3     5     5
 0.0202511863     2     3     5    10
 -0.0194256683     2     3     5    13
 -0.0000000001     2     3     6     6
 -0.0179128256     2     3     6     8
 -0.0024920180     2     3     6     9
 0.0000000001     2     3     6    11
 -0.0000000001     2     3     6    12
 -0.0000000001     2     3     7     7
 0.0024920180     2     3     7     8
 -0.0179128256     2     3     7     9
 -0.0000000001     2     3     7    11
 -0.0000000001     2     3     7    12
 -0.0161657992     2     3     8     6
 0.0022489730     2     3     8     7
 -0.0000000001     2     3     8     8
 0.0185478193     2     3     8    11
 -0.0116119570     2     3     8    12
 -0.0022489730     2     3     9     6
 -0.0161657992     2     3     9     7
 -0.0000000001     2     3     9     9
 -0.0116119570     2     3     9    11
 -0.0185478193     2     3     9    12
 -0.0558492120     2     3    10     1
 -0.0000000010     2     3    10     2
 0.0173948362     2     3    10     5
 -0.0000000002     2     3    10    10
 0.0000000001     2     3    10    13
 0.0000000001     2     3    11     6
 0.0131634255     2     3    11     8
 -0.0082410298     2     3    11     9
 -0.0000000002     2     3    11    11
 -0.0000000001     2     3    12     7
 -0.0082410298     2     3    12     8
 -0.0131634255     2     3    12     9
 -0.0000000002     2     3    12    12
 -0.0681778623     2     3    13     1
 -0.0000000013     2     3    13     2
 -0.0000000001     2     3    13     4
 -0.0118240131     2     3    13     5
 0.0000000001     2     3    13    10
 -0.0000000002     2     3    13    13
 -0.0004894835     2     4     1     1
 -0.0000097974     2     4     1     3
 0.0000147405     2     4     1     5
 -0.3315807081     2     4     3     1
 -0.0000000065     2     4     3     2
 -0.0003313326     2     4     3     3
 -0.0006289837     2     4     3     5
 -0.5819876772     2     4     4     2
 0.0009772079     2     4     4    10
 -0.0015508543     2     4     4    13
 -0.0943942533     2     4     5     1
 -0.0000000018     2     4     5     2
 0.0034788952     2     4     5     3
 -0.0195016774     2     4     5     5
 0.0000000001     2     4     5    10
 -0.0000000001     2     4     5    13
 -0.0178495769     2     4     6     6
 -0.0000000001     2     4     6     8
 0.0166790341     2     4     6    11
 -0.0139799719     2     4     6    12
 -0.0178495769     2     4     7     7
 -0.0000000001     2     4     7     9
 -0.0139799719     2     4     7    11
 -0.0166790341     2     4     7    12
 -0.0000000001     2     4     8     6
 -0.0194810174     2     4     8     8
 0.0000000002     2     4     8    11
 -0.0000000001     2     4     8    12
 -0.0000000001     2     4     9     7
 -0.0194810174     2     4     9     9
 -0.0000000001     2     4     9    11
 -0.0000000002     2     4     9    12
 -0.0360618032     2     4    10     2
 0.0000000001     2     4    10     5
 -0.0215907961     2     4    10    10
 0.0188309084     2     4    10    13
 0.0113811695     2     4    11     6
 -0.0095394271     2     4    11     7
 0.0000000002     2     4    11     8
 -0.0000000001     2     4    11     9
 -0.0209656695     2     4    11    11
 -0.0095394271     2     4    12     6
 -0.0113811695     2     4    12     7
 -0.0000000001     2     4    12     8
 -0.0000000002     2     4    12     9
 -0.0209656695     2     4    12    12
 -0.1106233704     2     4    13     2
 0.0000000001     2     4    13     3
 -0.0000000002     2     4    13     5
 0.0138918955     2     4    13    10
 -0.0125416386     2     4    13    13
 0.0038938939     2     5     1     2
 -0.0000147405     2     5     1     4
 0.0001209217     2     5     1    10
 -0.0001098194     2     5     1    13
 0.0134694674     2     5     3     2
 0.0006289837     2     5     3     4
 0.0026366201     2     5     3    10
 -0.0071385646     2     5     3    13
 -0.0944074756     2     5     4     1
 -0.0000000018     2     5     4     2