&FCI NORB= 13,NELEC= 14,MS2=0,
 ORBSYM=1,1,1,1,1,1,1,1,1,1,1,1,1
 ISYM=1,
&END
 0.3720377038     1     1     2     2
 -0.0032410377     1     1     2     4
 -0.0074251284     1     1     2    10
 0.0104333941     1     1     2    11
 0.6791087552     1     1     3     3
 -0.0000000002     1     1     3     4
 0.0617493082     1     1     3     5
 0.0000000002     1     1     3    10
 -0.0032410377     1     1     4     2
 -0.0000000002     1     1     4     3
 0.6190459187     1     1     4     4
 0.0000000002     1     1     4     5
 -0.0700746035     1     1     4    10
 -0.1057718396     1     1     4    11
 0.0617493082     1     1     5     3
 0.0000000002     1     1     5     4
 0.6428525142     1     1     5     5
 0.0000000002     1     1     5    10
 -0.0000000002     1     1     5    11
 0.6031533850     1     1     6     6
 -0.0000000002     1     1     6     8
 -0.0000000001     1     1     6     9
 0.1495186648     1     1     6    12
 0.1322637454     1     1     6    13
 0.6031533850     1     1     7     7
 -0.0000000001     1     1     7     8
 0.0000000002     1     1     7     9
 -0.1322637454     1     1     7    12
 0.1495186648     1     1     7    13
 -0.0000000002     1     1     8     6
 -0.0000000001     1     1     8     7
 0.6032427025     1     1     8     8
 -0.0000000002     1     1     8    13
 -0.0000000001     1     1     9     6
 0.0000000002     1     1     9     7
 0.6032427025     1     1     9     9
 -0.0000000002     1     1     9    12
 -0.0074251284     1     1    10     2
 0.0000000002     1     1    10     3
 -0.0700746035     1     1    10     4
 0.0000000002     1     1    10     5
 0.6047351978     1     1    10    10
 -0.2187383831     1     1    10    11
 0.0104333941     1     1    11     2
 -0.1057718396     1     1    11     4
 -0.0000000002     1     1    11     5
 -0.2187383831     1     1    11    10
 0.5810208315     1     1    11    11
 0.1495186648     1     1    12     6
 -0.1322637454     1     1    12     7
 -0.0000000002     1     1    12     9
 0.5842800033     1     1    12    12
 0.1322637454     1     1    13     6
 0.1495186648     1     1    13     7
 -0.0000000002     1     1    13     8
 0.5842800033     1     1    13    13
 -0.3720377038     1     2     2     1
 -0.0036152484     1     2     2     3
 -0.0095853958     1     2     2     5
 0.2212858819     1     2     3     4
 -0.1512789772     1     2     3    10
 0.0388796432     1     2     3    11
 0.0032410377     1     2     4     1
 0.2213595390     1     2     4     3
 -0.2091476266     1     2     4     5
 -0.2093115633     1     2     5     4
 -0.1750271436     1     2     5    10
 0.2059434708     1     2     5    11
 0.1886438622     1     2     6     8
 0.1508167288     1     2     6     9
 0.1508167288     1     2     7     8
 -0.1886438622     1     2     7     9
 0.1884848317     1     2     8     6
 0.1506895874     1     2     8     7
 0.0325039636     1     2     8    12
 0.1869609639     1     2     8    13
 0.1506895874     1     2     9     6
 -0.1884848317     1     2     9     7
 0.1869609639     1     2     9    12
 -0.0325039636     1     2     9    13
 0.0074251284     1     2    10     1
 -0.1511288403     1     2    10     3
 -0.1746544267     1     2    10     5
 -0.0104333941     1     2    11     1
 0.0386975725     1     2    11     3
 0.2054060818     1     2    11     5
 0.0325440628     1     2    12     8
 0.1871916120     1     2    12     9
 0.1871916120     1     2    13     8
 -0.0325440628     1     2    13     9
 0.0036152484     1     3     2     2
 -0.0000691796     1     3     2     4
 -0.0001469991     1     3     2    10
 0.0001877377     1     3     2    11
 -0.6791087552     1     3     3     1
 -0.0129107850     1     3     3     5
 0.0000000002     1     3     4     1
 -0.2213595390     1     3     4     2
 -0.0048606794     1     3     4     4
 -0.0070908593     1     3     4    10
 0.0096995264     1     3     4    11
 -0.0617493082     1     3     5     1
 -0.0224042195     1     3     5     5
 -0.0162461964     1     3     6     6
 -0.0164551473     1     3     6    12
 -0.0145561720     1     3     6    13
 -0.0162461964     1     3     7     7
 0.0145561720     1     3     7    12
 -0.0164551473     1     3     7    13
 -0.0161312331     1     3     8     8
 -0.0161312331     1     3     9     9
 -0.0000000002     1     3    10     1
 0.1511288403     1     3    10     2
 -0.0086284272     1     3    10     4
 -0.0080409969     1     3    10    10
 0.0148171749     1     3    10    11
 -0.0386975725     1     3    11     2
 0.0101121817     1     3    11     4
 0.0098222077     1     3    11    10
 -0.0203438167     1     3    11    11
 -0.0094642330     1     3    12     6
 0.0083720310     1     3    12     7
 -0.0176008129     1     3    12    12
 -0.0083720310     1     3    13     6
 -0.0094642330     1     3    13     7
 -0.0176008129     1     3    13    13
 0.0032410377     1     4     2     1
 0.0000691796     1     4     2     3
 0.0001680176     1     4     2     5
 0.0000000002     1     4     3     1
 -0.2212858819     1     4     3     2
 0.0017546526     1     4     3    10
 -0.0006811576     1     4     3    11
 -0.6190459187     1     4     4     1
 0.0048606794     1     4     4     3
 0.0029396777     1     4     4     5
 -0.0000000002     1     4     5     1
 0.2093115633     1     4     5     2
 0.0180548551     1     4     5    10
 -0.0224795579     1     4     5    11
 -0.0116637890     1     4     6     8
 -0.0093249496     1     4     6     9
 -0.0093249496     1     4     7     8
 0.0116637890     1     4     7     9
 -0.0120776492     1     4     8     6
 -0.0096558220     1     4     8     7
 -0.0038761496     1     4     8    12
 -0.0222953936     1     4     8    13
 -0.0096558220     1     4     9     6
 0.0120776492     1     4     9     7
 -0.0222953936     1     4     9    12
 0.0038761496     1     4     9    13
 0.0700746035     1     4    10     1
 0.0086284272     1     4    10     3
 0.0126975344     1     4    10     5
 0.1057718396     1     4    11     1
 -0.0101121817     1     4    11     3
 -0.0133922789     1     4    11     5
 -0.0025744840     1     4    12     8
 -0.0148082866     1     4    12     9
 -0.0148082866     1     4    13     8
 0.0025744840     1     4    13     9
 0.0095853958     1     5     2     2
 -0.0001680176     1     5     2     4
 -0.0003880179     1     5     2    10
 0.0005382248     1     5     2    11
 -0.0617493082     1     5     3     1
 0.0129107850     1     5     3     3
 -0.0000000002     1     5     4     1
 0.2091476266     1     5     4     2
 -0.0029396777     1     5     4     4
 0.0049018577     1     5     4    10
 -0.0085621617     1     5     4    11
 -0.6428525142     1     5     5     1
 0.0224042195     1     5     5     3
 0.0097698507     1     5     6     6
 0.0054509265     1     5     6    12
 0.0048218726     1     5     6    13
 0.0097698507     1     5     7     7
 -0.0048218726     1     5     7    12
 0.0054509265     1     5     7    13
 0.0081237671     1     5     8     8
 0.0081237671     1     5     9     9
 -0.0000000002     1     5    10     1
 0.1746544267     1     5    10     2
 -0.0126975344     1     5    10     4
 0.0155272334     1     5    10    10
 -0.0087281602     1     5    10    11
 0.0000000002     1     5    11     1
 -0.2054060818     1     5    11     2
 0.0133922789     1     5    11     4
 -0.0162936557     1     5    11    10
 0.0044131617     1     5    11    11
 0.0039484065     1     5    12     6
 -0.0034927481     1     5    12     7
 0.0085879929     1     5    12    12
 0.0034927481     1     5    13     6
 0.0039484065     1     5    13     7
 0.0085879929     1     5    13    13
 0.0001633530     1     6     2     8
 0.0001305972     1     6     2     9
 -0.0066208229     1     6     3    12
 -0.0058567593     1     6     3    13
 0.0007087380     1     6     4     8
 0.0005666208     1     6     4     9
 0.0014243013     1     6     5    12
 0.0012599325     1     6     5    13
 -0.6031533850     1     6     6     1
 0.0162461964     1     6     6     3
 -0.0097698507     1     6     6     5
 0.0000000002     1     6     8     1
 -0.1884848317     1     6     8     2
 0.0120776492     1     6     8     4
 -0.0093141259     1     6     8    10
 0.0019696788     1     6     8    11
 0.0000000001     1     6     9     1
 -0.1506895874     1     6     9     2
 0.0096558220     1     6     9     4
 -0.0074464443     1     6     9    10
 0.0015747160     1     6     9    11
 -0.0002165212     1     6    10     8
 -0.0001731041     1     6    10     9
 -0.0000608520     1     6    11     8
 -0.0000486499     1     6    11     9
 -0.1495186648     1     6    12     1
 0.0094642330     1     6    12     3
 -0.0039484065     1     6    12     5
 -0.1322637454     1     6    13     1
 0.0083720310     1     6    13     3
 -0.0034927481     1     6    13     5
 0.0001305972     1     7     2     8
 -0.0001633530     1     7     2     9
 0.0058567593     1     7     3    12
 -0.0066208229     1     7     3    13
 0.0005666208     1     7     4     8
 -0.0007087380     1     7     4     9
 -0.0012599325     1     7     5    12
 0.0014243013     1     7     5    13
 -0.6031533850     1     7     7     1
 0.0162461964     1     7     7     3
 -0.0097698507     1     7     7     5
 0.0000000001     1     7     8     1
 -0.1506895874     1     7     8     2
 0.0096558220     1     7     8     4
 -0.0074464443     1     7     8    10
 0.0015747160     1     7     8    11
 -0.0000000002     1     7     9     1
 0.1884848317     1     7     9     2
 -0.0120776492     1     7     9     4
 0.0093141259     1     7     9    10
 -0.0019696788     1     7     9    11
 -0.0001731041     1     7    10     8
 0.0002165212     1     7    10     9
 -0.0000486499     1     7    11     8
 0.0000608520     1     7    11     9
 0.1322637454     1     7    12     1
 -0.0083720310     1     7    12     3
 0.0034927481     1     7    12     5
 -0.1495186648     1     7    13     1
 0.0094642330     1     7    13     3
 -0.0039484065     1     7    13     5
 -0.0001633530     1     8     2     6
 -0.0001305972     1     8     2     7
 -0.0000404014     1     8     2    12
 -0.0002323867     1     8     2    13
 -0.0007087380     1     8     4     6
 -0.0005666208     1     8     4     7
 -0.0012273925     1     8     4    12
 -0.0070598922     1     8     4    13
 0.0000000002     1     8     6     1
 -0.1886438622     1     8     6     2
 0.0116637890     1     8     6     4
 -0.0092133834     1     8     6    10
 0.0020710187     1     8     6    11
 0.0000000001     1     8     7     1
 -0.1508167288     1     8     7     2
 0.0093249496     1     8     7     4
 -0.0073659027     1     8     7    10
 0.0016557351     1     8     7    11
 -0.6032427025     1     8     8     1
 0.0161312331     1     8     8     3
 -0.0081237671     1     8     8     5
 0.0002165212     1     8    10     6
 0.0001731041     1     8    10     7
 0.0004820950     1     8    10    12
 0.0027729832     1     8    10    13
 0.0000608520     1     8    11     6
 0.0000486499     1     8    11     7
 -0.0001489831     1     8    11    12
 -0.0008569423     1     8    11    13
 -0.0325440628     1     8    12     2
 0.0025744840     1     8    12     4
 -0.0017196552     1     8    12    10
 -0.0003412655     1     8    12    11
 0.0000000002     1     8    13     1
 -0.1871916120     1     8    13     2
 0.0148082866     1     8    13     4
 -0.0098913597     1     8    13    10
 -0.0019629399     1     8    13    11
 -0.0001305972     1     9     2     6
 0.0001633530     1     9     2     7
 -0.0002323867     1     9     2    12
 0.0000404014     1     9     2    13
 -0.0005666208     1     9     4     6
 0.0007087380     1     9     4     7
 -0.0070598922     1     9     4    12
 0.0012273925     1     9     4    13
 0.0000000001     1     9     6     1
 -0.1508167288     1     9     6     2
 0.0093249496     1     9     6     4
 -0.0073659027     1     9     6    10
 0.0016557351     1     9     6    11
 -0.0000000002     1     9     7     1
 0.1886438622     1     9     7     2
 -0.0116637890     1     9     7     4
 0.0092133834     1     9     7    10
 -0.0020710187     1     9     7    11
 -0.6032427025     1     9     9     1
 0.0161312331     1     9     9     3
 -0.0081237671     1     9     9     5
 0.0001731041     1     9    10     6
 -0.0002165212     1     9    10     7
 0.0027729832     1     9    10    12
 -0.0004820950     1     9    10    13
 0.0000486499     1     9    11     6
 -0.0000608520     1     9    11     7
 -0.0008569423     1     9    11    12
 0.0001489831     1     9    11    13
 0.0000000002     1     9    12     1
 -0.1871916120     1     9    12     2
 0.0148082866     1     9    12     4
 -0.0098913597     1     9    12    10
 -0.0019629399     1     9    12    11
 0.0325440628     1     9    13     2
 -0.0025744840     1     9    13     4
 0.0017196552     1     9    13    10
 0.0003412655     1     9    13    11
 0.0074251284     1    10     2     1
 0.0001469991     1    10     2     3
 0.0003880179     1    10     2     5
 -0.0000000002     1    10     3     1
 0.1512789772     1    10     3     2
 -0.0017546526     1    10     3     4
 0.0049976159     1    10     3    11
 0.0700746035     1    10     4     1
 0.0070908593     1    10     4     3
 -0.0049018577     1    10     4     5
 -0.0000000002     1    10     5     1
 0.1750271436     1    10     5     2
 -0.0180548551     1    10     5     4
 0.0077332987     1    10     5    11
 0.0092133834     1    10     6     8
 0.0073659027     1    10     6     9
 0.0073659027     1    10     7     8
 -0.0092133834     1    10     7     9
 0.0093141259     1    10     8     6
 0.0074464443     1    10     8     7
 0.0022204542     1    10     8    12
 0.0127719271     1    10     8    13
 0.0074464443     1    10     9     6
 -0.0093141259     1    10     9     7
 0.0127719271     1    10     9    12
 -0.0022204542     1    10     9    13
 -0.6047351978     1    10    10     1
 0.0080409969     1    10    10     3
 -0.0155272334     1    10    10     5
 0.2187383831     1    10    11     1
 -0.0098222077     1    10    11     3
 0.0162936557     1    10    11     5
 0.0017196552     1    10    12     8
 0.0098913597     1    10    12     9
 0.0098913597     1    10    13     8
 -0.0017196552     1    10    13     9
 -0.0104333941     1    11     2     1
 -0.0001877377     1    11     2     3
 -0.0005382248     1    11     2     5
 -0.0388796432     1    11     3     2
 0.0006811576     1    11     3     4
 -0.0049976159     1    11     3    10
 0.1057718396     1    11     4     1
 -0.0096995264     1    11     4     3
 0.0085621617     1    11     4     5
 0.0000000002     1    11     5     1
 -0.2059434708     1    11     5     2
 0.0224795579     1    11     5     4
 -0.0077332987     1    11     5    10
 -0.0020710187     1    11     6     8
 -0.0016557351     1    11     6     9
 -0.0016557351     1    11     7     8
 0.0020710187     1    11     7     9
 -0.0019696788     1    11     8     6
 -0.0015747160     1    11     8     7
 0.0001950344     1    11     8    12
 0.0011218271     1    11     8    13
 -0.0015747160     1    11     9     6
 0.0019696788     1    11     9     7
 0.0011218271     1    11     9    12
 -0.0001950344     1    11     9    13
 0.2187383831     1    11    10     1
 -0.0148171749     1    11    10     3
 0.0087281602     1    11    10     5
 -0.5810208315     1    11    11     1
 0.0203438167     1    11    11     3
 -0.0044131617     1    11    11     5
 0.0003412655     1    11    12     8
 0.0019629399     1    11    12     9
 0.0019629399     1    11    13     8
 -0.0003412655     1    11    13     9
 0.0000404014     1    12     2     8
 0.0002323867     1    12     2     9
 0.0066208229     1    12     3     6
 -0.0058567593     1    12     3     7
 0.0012273925     1    12     4     8
 0.0070598922     1    12     4     9
 -0.0014243013     1    12     5     6
 0.0012599325     1    12     5     7
 -0.1495186648     1    12     6     1
 0.0164551473     1    12     6     3
 -0.0054509265     1    12     6     5
 0.1322637454     1    12     7     1
 -0.0145561720     1    12     7     3
 0.0048218726     1    12     7     5
 -0.0325039636     1    12     8     2
 0.0038761496     1    12     8     4
 -0.0022204542     1    12     8    10
 -0.0001950344     1    12     8    11
 0.0000000002     1    12     9     1
 -0.1869609639     1    12     9     2
 0.0222953936     1    12     9     4
 -0.0127719271     1    12     9    10
 -0.0011218271     1    12     9    11
 -0.0004820950     1    12    10     8
 -0.0027729832     1    12    10     9
 0.0001489831     1    12    11     8
 0.0008569423     1    12    11     9
 -0.5842800033     1    12    12     1
 0.0176008129     1    12    12     3
 -0.0085879929     1    12    12     5
 0.0002323867     1    13     2     8
 -0.0000404014     1    13     2     9
 0.0058567593     1    13     3     6
 0.0066208229     1    13     3     7
 0.0070598922     1    13     4     8
 -0.0012273925     1    13     4     9
 -0.0012599325     1    13     5     6
 -0.0014243013     1    13     5     7
 -0.1322637454     1    13     6     1
 0.0145561720     1    13     6     3
 -0.0048218726     1    13     6     5
 -0.1495186648     1    13     7     1
 0.0164551473     1    13     7     3
 -0.0054509265     1    13     7     5
 0.0000000002     1    13     8     1
 -0.1869609639     1    13     8     2
 0.0222953936     1    13     8     4
 -0.0127719271     1    13     8    10
 -0.0011218271     1    13     8    11
 0.0325039636     1    13     9     2
 -0.0038761496     1    13     9     4
 0.0022204542     1    13     9    10
 0.0001950344     1    13     9    11
 -0.0027729832     1    13    10     8
 0.0004820950     1    13    10     9
 0.0008569423     1    13    11     8
 -0.0001489831     1    13    11     9
 -0.5842800033     1    13    13     1
 0.0176008129     1    13    13     3
 -0.0085879929     1    13    13     5
 -0.3720377038     2     1     1     2
 0.0032410377     2     1     1     4
 0.0074251284     2     1     1    10
 -0.0104333941     2     1     1    11
 -0.0036152484     2     1     3     2
 0.2213595390     2     1     3     4
 -0.1511288403     2     1     3    10
 0.0386975725     2     1     3    11
 0.2212858819     2     1     4     3
 -0.2093115633     2     1     4     5
 -0.0095853958     2     1     5     2
 -0.2091476266     2     1     5     4
 -0.1746544267     2     1     5    10
 0.2054060818     2     1     5    11
 0.1884848317     2     1     6     8
 0.1506895874     2     1     6     9
 0.1506895874     2     1     7     8
 -0.1884848317     2     1     7     9
 0.1886438622     2     1     8     6
 0.1508167288     2     1     8     7
 0.0325440628     2     1     8    12
 0.1871916120     2     1     8    13
 0.1508167288     2     1     9     6
 -0.1886438622     2     1     9     7
 0.1871916120     2     1     9    12
 -0.0325440628     2     1     9    13
 -0.1512789772     2     1    10     3
 -0.1750271436     2     1    10     5
 0.0388796432     2     1    11     3
 0.2059434708     2     1    11     5
 0.0325039636     2     1    12     8
 0.1869609639     2     1    12     9
 0.1869609639     2     1    13     8
 -0.0325039636     2     1    13     9
 0.3720377038     2     2     1     1
 0.0036152484     2     2     1     3
 0.0095853958     2     2     1     5
 0.0036152484     2     2     3     1
 0.6791604721     2     2     3     3
 0.0000000002     2     2     3     4
 0.0619190670     2     2     3     5
 -0.0000000002     2     2     3    10
 0.0000000002     2     2     4     3
 0.6189944287     2     2     4     4
 -0.0000000002     2     2     4     5
 -0.0701893992     2     2     4    10
 -0.1055838643     2     2     4    11
 0.0095853958     2     2     5     1
 0.0619190670     2     2     5     3
 -0.0000000002     2     2     5     4
 0.6433560240     2     2     5     5
 -0.0000000002     2     2     5    10
 0.0000000002     2     2     5    11
 0.6033772101     2     2     6     6
 0.0000000002     2     2     6     8
 0.0000000001     2     2     6     9
 0.1497076614     2     2     6    12
 0.1324309312     2     2     6    13
 0.6033772101     2     2     7     7
 0.0000000001     2     2     7     8
 -0.0000000002     2     2     7     9
 -0.1324309312     2     2     7    12
 0.1497076614     2     2     7    13
 0.0000000002     2     2     8     6
 0.0000000001     2     2     8     7
 0.6030660120     2     2     8     8
 0.0000000002     2     2     8    13
 0.0000000001     2     2     9     6
 -0.0000000002     2     2     9     7
 0.6030660120     2     2     9     9
 0.0000000002     2     2     9    12
 -0.0000000002     2     2    10     3
 -0.0701893992     2     2    10     4
 -0.0000000002     2     2    10     5
 0.6044399020     2     2    10    10
 -0.2183445982     2     2    10    11
 -0.1055838643     2     2    11     4
 0.0000000002     2     2    11     5
 -0.2183445982     2     2    11    10
 0.5804756513     2     2    11    11
 0.1497076614     2     2    12     6
 -0.1324309312     2     2    12     7
 0.0000000002     2     2    12     9
 0.5845863558     2     2    12    12
 0.1324309312     2     2    13     6
 0.1497076614     2     2    13     7
 0.0000000002     2     2    13     8
 0.5845863558     2     2    13    13
 -0.0036152484     2     3     1     2
 0.0000691796     2     3     1     4
 0.0001469991     2     3     1    10
 -0.0001877377     2     3     1    11
 -0.6791604721     2     3     3     2
 0.0051232241     2     3     3     4
 0.0116401633     2     3     3    10
 -0.0176732585     2     3     3    11
 -0.2212858819     2     3     4     1
 -0.0000000002     2     3     4     2
 0.0111612039     2     3     4     5
 -0.0619190670     2     3     5     2
 0.0142716659     2     3     5     4
 0.0165827199     2     3     5    10
 -0.0262849515     2     3     5    11
 -0.0154778816     2     3     6     8
 -0.0123742349     2     3     6     9
 -0.0123742349     2     3     7     8
 0.0154778816     2     3     7     9
 -0.0123493297     2     3     8     6
 -0.0098730247     2     3     8     7
 -0.0035024006     2     3     8    12
 -0.0201456102     2     3     8    13
 -0.0098730247     2     3     9     6
 0.0123493297     2     3     9     7
 -0.0201456102     2     3     9    12
 0.0035024006     2     3     9    13
 0.1512789772     2     3    10     1
 0.0000000002     2     3    10     2
 0.0136112302     2     3    10     5
 -0.0388796432     2     3    11     1
 -0.0167001626     2     3    11     5
 -0.0026559769     2     3    12     8
 -0.0152770289     2     3    12     9
 -0.0152770289     2     3    13     8
 0.0026559769     2     3    13     9
 -0.0032410377     2     4     1     1
 -0.0000691796     2     4     1     3
 -0.0001680176     2     4     1     5
 -0.2213595390     2     4     3     1
 -0.0000000002     2     4     3     2
 -0.0051232241     2     4     3     3
 -0.0031132764     2     4     3     5
 -0.6189944287     2     4     4     2
 -0.0041260111     2     4     4    10
 0.0065370365     2     4     4    11
 0.2091476266     2     4     5     1
 0.0000000002     2     4     5     2
 -0.0142716659     2     4     5     3
 -0.0199777429     2     4     5     5
 -0.0176856425     2     4     6     6
 -0.0153306659     2     4     6    12
 -0.0135614593     2     4     6    13
 -0.0176856425     2     4     7     7
 0.0135614593     2     4     7    12
 -0.0153306659     2     4     7    13
 -0.0197051358     2     4     8     8
 -0.0197051358     2     4     9     9
 0.0701893992     2     4    10     2
 -0.0172839875     2     4    10    10
 0.0193192441     2     4    10    11
 0.1055838643     2     4    11     2
 0.0180036165     2     4    11    10
 -0.0194078248     2     4    11    11
 -0.0104612181     2     4    12     6
 0.0092539609     2     4    12     7
 -0.0202776246     2     4    12    12
 -0.0092539609     2     4    13     6
 -0.0104612181     2     4    13     7
 -0.0202776246     2     4    13    13
 -0.0095853958     2     5     1     2
 0.0001680176     2     5     1     4
 0.0003880179     2     5     1    10
 -0.0005382248     2     5     1    11
 -0.0619190670     2     5     3     2
 0.0031132764     2     5     3     4
 0.0025493630     2     5     3    10
 -0.0090692335     2     5     3    11
 0.2093115633     2     5     4     1
 0.0000000002     2     5     4     2
 -0.0111612039     2     5     4     3
 -0.6433560240     2     5     5     2
 0.0199777429     2     5     5     4
 -0.0056497629     2     5     5    10
 -0.0010637508     2     5     5    11
 0.0007038458     2     5     6     8
 0.0005627097     2     5     6     9
 0.0005627097     2     5     7     8
 -0.0007038458     2     5     7     9
 0.0015575411     2     5     8     6
 0.0012452207     2     5     8     7
 0.0011545710     2     5     8    12
 0.0066410277     2     5     8    13
 0.0012452207     2     5     9     6
 -0.0015575411     2     5     9     7
 0.0066410277     2     5     9    12
 -0.0011545710     2     5     9    13
 0.1750271436     2     5    10     1
 0.0000000002     2     5    10     2
 -0.0136112302     2     5    10     3
 -0.2059434708     2     5    11     1
 -0.0000000002     2     5    11     2
 0.0167001626     2     5    11     3
 0.0005275855     2     5    12     8
 0.0030346421     2     5    12     9
 0.0030346421     2     5    13     8
 -0.0005275855     2     5    13     9
 -0.0001633530     2     6     1     8
 -0.0001305972     2     6     1     9
 -0.0028209598     2     6     3     8
 -0.0022552969     2     6     3     9
 -0.0044512293     2     6     4    12
 -0.0039375436     2     6     4    13
 -0.0009071744     2     6     5     8
 -0.0007252665     2     6     5     9
 -0.6033772101     2     6     6     2
 0.0176856425     2     6     6     4
 -0.0041212446     2     6     6    10
 -0.0073592943     2     6     6    11
 -0.1886438622     2     6     8     1
 -0.0000000002     2     6     8     2
 0.0123493297     2     6     8     3
 -0.0015575411     2     6     8     5
 -0.1508167288     2     6     9     1
 -0.0000000001     2     6     9     2
 0.0098730247     2     6     9     3
 -0.0012452207     2     6     9     5
 0.0018322444     2     6    10    12
 0.0016207978     2     6    10    13
 -0.0007316627     2     6    11    12
 -0.0006472265     2     6    11    13
 -0.1497076614     2     6    12     2
 0.0104612181     2     6    12     4
 -0.0054860817     2     6    12    10
 -0.0033612926     2     6    12    11
 -0.1324309312     2     6    13     2
 0.0092539609     2     6    13     4
 -0.0048529709     2     6    13    10
 -0.0029733889     2     6    13    11
 -0.0001305972     2     7     1     8
 0.0001633530     2     7     1     9
 -0.0022552969     2     7     3     8
 0.0028209598     2     7     3     9
 0.0039375436     2     7     4    12
 -0.0044512293     2     7     4    13
 -0.0007252665     2     7     5     8
 0.0009071744     2     7     5     9
 -0.6033772101     2     7     7     2
 0.0176856425     2     7     7     4
 -0.0041212446     2     7     7    10
 -0.0073592943     2     7     7    11
 -0.1508167288     2     7     8     1
 -0.0000000001     2     7     8     2
 0.0098730247     2     7     8     3
 -0.0012452207     2     7     8     5
 0.1886438622     2     7     9     1
 0.0000000002     2     7     9     2
 -0.0123493297     2     7     9     3
 0.0015575411     2     7     9     5
 -0.0016207978     2     7    10    12
 0.0018322444     2     7    10    13
 0.0006472265     2     7    11    12
 -0.0007316627     2     7    11    13
 0.1324309312     2     7    12     2
 -0.0092539609     2     7    12     4
 0.0048529709     2     7    12    10
 0.0029733889     2     7    12    11
 -0.1497076614     2     7    13     2
 0.0104612181     2     7    13     4
 -0.0054860817     2     7    13    10
 -0.0033612926     2     7    13    11
 0.0001633530     2     8     1     6
 0.0001305972     2     8     1     7
 0.0000404014     2     8     1    12
 0.0002323867     2     8     1    13
 0.0028209598     2     8     3     6
 0.0022552969     2     8     3     7
 -0.0008340372     2     8     3    12
 -0.0047973349     2     8     3    13
 0.0009071744     2     8     5     6
 0.0007252665     2     8     5     7
 0.0006135125     2     8     5    12
 0.0035288893     2     8     5    13
 -0.1884848317     2     8     6     1
 -0.0000000002     2     8     6     2
 0.0154778816     2     8     6     3
 -0.0007038458     2     8     6     5
 -0.1506895874     2     8     7     1
 -0.0000000001     2     8     7     2
 0.0123742349     2     8     7     3
 -0.0005627097     2     8     7     5
 -0.6030660120     2     8     8     2
 0.0197051358     2     8     8     4
 -0.0086473034     2     8     8    10
 -0.0033378640     2     8     8    11
 -0.0325039636     2     8    12     1
 0.0026559769     2     8    12     3
 -0.0005275855     2     8    12     5
 -0.1869609639     2     8    13     1
 -0.0000000002     2     8    13     2
 0.0152770289     2     8    13     3
 -0.0030346421     2     8    13     5
 0.0001305972     2     9     1     6
 -0.0001633530     2     9     1     7
 0.0002323867     2     9     1    12
 -0.0000404014     2     9     1    13
 0.0022552969     2     9     3     6
 -0.0028209598     2     9     3     7
 -0.0047973349     2     9     3    12
 0.0008340372     2     9     3    13
 0.0007252665     2     9     5     6
 -0.0009071744     2     9     5     7
 0.0035288893     2     9     5    12
 -0.0006135125     2     9     5    13
 -0.1506895874     2     9     6     1
 -0.0000000001     2     9     6     2
 0.0123742349     2     9     6     3
 -0.0005627097     2     9     6     5
 0.1884848317     2     9     7     1
 0.0000000002     2     9     7     2
 -0.0154778816     2     9     7     3