&FCI NORB= 13,NELEC= 14,MS2=0,
 ORBSYM=1,1,1,1,1,1,1,1,1,1,1,1,1
 ISYM=1,
&END
 0.3224122960     1     1     2     2
 0.0000000002     1     1     2     3
 -0.0018051072     1     1     2     4
 -0.0000000006     1     1     2     5
 0.0065712925     1     1     2    10
 -0.0070750073     1     1     2    11
 0.0000000002     1     1     3     2
 0.6302182332     1     1     3     3
 -0.0000000478     1     1     3     4
 -0.0406844344     1     1     3     5
 -0.0000000226     1     1     3    10
 -0.0000000016     1     1     3    11
 -0.0018051072     1     1     4     2
 -0.0000000478     1     1     4     3
 0.6089610275     1     1     4     4
 -0.0000000312     1     1     4     5
 0.0553552579     1     1     4    10
 0.1073213147     1     1     4    11
 -0.0000000006     1     1     5     2
 -0.0406844344     1     1     5     3
 -0.0000000312     1     1     5     4
 0.6207364219     1     1     5     5
 0.0000000422     1     1     5    10
 -0.0000000334     1     1     5    11
 0.5756788459     1     1     6     6
 0.0000000262     1     1     6     8
 -0.0000000385     1     1     6     9
 -0.0596998859     1     1     6    12
 0.1846646957     1     1     6    13
 0.5756788459     1     1     7     7
 -0.0000000385     1     1     7     8
 -0.0000000262     1     1     7     9
 0.1846646957     1     1     7    12
 0.0596998859     1     1     7    13
 0.0000000262     1     1     8     6
 -0.0000000385     1     1     8     7
 0.5910557145     1     1     8     8
 -0.0000000361     1     1     8    12
 0.0000000105     1     1     8    13
 -0.0000000385     1     1     9     6
 -0.0000000262     1     1     9     7
 0.5910557145     1     1     9     9
 -0.0000000105     1     1     9    12
 -0.0000000361     1     1     9    13
 0.0065712925     1     1    10     2
 -0.0000000226     1     1    10     3
 0.0553552579     1     1    10     4
 0.0000000422     1     1    10     5
 0.6345315070     1     1    10    10
 -0.1982074864     1     1    10    11
 -0.0070750073     1     1    11     2
 -0.0000000016     1     1    11     3
 0.1073213147     1     1    11     4
 -0.0000000334     1     1    11     5
 -0.1982074864     1     1    11    10
 0.5228849283     1     1    11    11
 -0.0596998859     1     1    12     6
 0.1846646957     1     1    12     7
 -0.0000000361     1     1    12     8
 -0.0000000105     1     1    12     9
 0.5804976954     1     1    12    12
 0.1846646957     1     1    13     6
 0.0596998859     1     1    13     7
 0.0000000105     1     1    13     8
 -0.0000000361     1     1    13     9
 0.5804976954     1     1    13    13
 -0.3224122960     1     2     2     1
 -0.0018264906     1     2     2     3
 -0.0000000002     1     2     2     4
 0.0071125865     1     2     2     5
 0.0000000006     1     2     2    10
 -0.0000000006     1     2     2    11
 -0.0000000002     1     2     3     1
 0.2670734986     1     2     3     4
 0.1262156554     1     2     3    10
 0.0090561543     1     2     3    11
 0.0018051072     1     2     4     1
 0.2671040490     1     2     4     3
 0.1742882506     1     2     4     5
 0.0000000006     1     2     5     1
 0.1743665982     1     2     5     4
 -0.2363072697     1     2     5    10
 0.1861796680     1     2     5    11
 -0.1466968622     1     2     6     8
 0.2154025115     1     2     6     9
 0.2154025115     1     2     7     8
 0.1466968622     1     2     7     9
 -0.1466262001     1     2     8     6
 0.2152987549     1     2     8     7
 0.2016558888     1     2     8    12
 -0.0591244956     1     2     8    13
 0.2152987549     1     2     9     6
 0.1466262001     1     2     9     7
 0.0591244956     1     2     9    12
 0.2016558888     1     2     9    13
 -0.0065712925     1     2    10     1
 0.1261353316     1     2    10     3
 -0.2360205202     1     2    10     5
 0.0070750073     1     2    11     1
 0.0091272330     1     2    11     3
 0.1858652644     1     2    11     5
 -0.0000000001     1     2    11    11
 0.2018002896     1     2    12     8
 0.0591668331     1     2    12     9
 -0.0000000001     1     2    12    12
 -0.0591668331     1     2    13     8
 0.2018002896     1     2    13     9
 -0.0000000001     1     2    13    13
 -0.0000000002     1     3     2     1
 0.0018264906     1     3     2     2
 -0.0000272285     1     3     2     4
 0.0000785851     1     3     2    10
 -0.0000731687     1     3     2    11
 -0.6302182332     1     3     3     1
 -0.0000000002     1     3     3     4
 0.0087873654     1     3     3     5
 0.0000000008     1     3     3    10
 -0.0000000009     1     3     3    11
 0.0000000478     1     3     4     1
 -0.2671040490     1     3     4     2
 -0.0027343784     1     3     4     4
 0.0000000007     1     3     4     5
 0.0069789936     1     3     4    10
 -0.0070269132     1     3     4    11
 0.0406844344     1     3     5     1
 0.0000000009     1     3     5     4
 -0.0214441615     1     3     5     5
 -0.0000000018     1     3     5    10
 0.0000000021     1     3     5    11
 -0.0164519559     1     3     6     6
 -0.0000000009     1     3     6     8
 0.0000000014     1     3     6     9
 0.0068376792     1     3     6    12
 -0.0211504249     1     3     6    13
 -0.0164519559     1     3     7     7
 0.0000000014     1     3     7     8
 0.0000000009     1     3     7     9
 -0.0211504249     1     3     7    12
 -0.0068376792     1     3     7    13
 -0.0000000008     1     3     8     6
 0.0000000011     1     3     8     7
 -0.0171079289     1     3     8     8
 0.0000000019     1     3     8    12
 -0.0000000006     1     3     8    13
 0.0000000011     1     3     9     6
 0.0000000008     1     3     9     7
 -0.0171079289     1     3     9     9
 0.0000000006     1     3     9    12
 0.0000000019     1     3     9    13
 0.0000000226     1     3    10     1
 -0.1261353316     1     3    10     2
 0.0074679628     1     3    10     4
 -0.0000000015     1     3    10     5
 -0.0143516014     1     3    10    10
 0.0178505463     1     3    10    11
 0.0000000016     1     3    11     1
 -0.0091272330     1     3    11     2
 -0.0064029158     1     3    11     4
 0.0000000012     1     3    11     5
 0.0125487734     1     3    11    10
 -0.0171944762     1     3    11    11
 0.0040315944     1     3    12     6
 -0.0124705958     1     3    12     7
 0.0000000014     1     3    12     8
 0.0000000004     1     3    12     9
 -0.0187727878     1     3    12    12
 -0.0124705958     1     3    13     6
 -0.0040315944     1     3    13     7
 -0.0000000004     1     3    13     8
 0.0000000014     1     3    13     9
 -0.0187727878     1     3    13    13
 0.0018051072     1     4     2     1
 0.0000000002     1     4     2     2
 0.0000272285     1     4     2     3
 -0.0000804973     1     4     2     5
 0.0000000478     1     4     3     1
 -0.2670734986     1     4     3     2
 0.0000000002     1     4     3     3
 -0.0000000002     1     4     3     5
 -0.0006176095     1     4     3    10
 -0.0004617028     1     4     3    11
 -0.6089610275     1     4     4     1
 0.0027343784     1     4     4     3
 -0.0024148656     1     4     4     5
 -0.0000000003     1     4     4    10
 0.0000000005     1     4     4    11
 0.0000000312     1     4     5     1
 -0.1743665982     1     4     5     2
 -0.0000000009     1     4     5     3
 0.0000000018     1     4     5     5
 0.0200004538     1     4     5    10
 -0.0202517411     1     4     5    11
 0.0000000015     1     4     6     6
 0.0091424853     1     4     6     8
 -0.0134243791     1     4     6     9
 -0.0000000006     1     4     6    12
 0.0000000018     1     4     6    13
 0.0000000015     1     4     7     7
 -0.0134243791     1     4     7     8
 -0.0091424853     1     4     7     9
 0.0000000018     1     4     7    12
 0.0000000006     1     4     7    13
 0.0091366003     1     4     8     6
 -0.0134157379     1     4     8     7
 0.0000000018     1     4     8     8
 -0.0226608364     1     4     8    12
 0.0066440436     1     4     8    13
 -0.0134157379     1     4     9     6
 -0.0091366003     1     4     9     7
 0.0000000018     1     4     9     9
 -0.0066440436     1     4     9    12
 -0.0226608364     1     4     9    13
 -0.0553552579     1     4    10     1
 -0.0074679628     1     4    10     3
 0.0160904800     1     4    10     5
 0.0000000020     1     4    10    10
 -0.0000000018     1     4    10    11
 -0.1073213147     1     4    11     1
 0.0064029158     1     4    11     3
 -0.0127952050     1     4    11     5
 -0.0000000015     1     4    11    10
 0.0000000014     1     4    11    11
 -0.0000000004     1     4    12     6
 0.0000000012     1     4    12     7
 -0.0157358885     1     4    12     8
 -0.0046136837     1     4    12     9
 0.0000000019     1     4    12    12
 0.0000000012     1     4    13     6
 0.0000000004     1     4    13     7
 0.0046136837     1     4    13     8
 -0.0157358885     1     4    13     9
 0.0000000019     1     4    13    13
 0.0000000006     1     5     2     1
 -0.0071125865     1     5     2     2
 0.0000804973     1     5     2     4
 -0.0002937938     1     5     2    10
 0.0003103512     1     5     2    11
 0.0406844344     1     5     3     1
 -0.0087873654     1     5     3     3
 0.0000000002     1     5     3     4
 -0.0000000003     1     5     3    10
 0.0000000007     1     5     3    11
 0.0000000312     1     5     4     1
 -0.1742882506     1     5     4     2
 -0.0000000007     1     5     4     3
 0.0024148656     1     5     4     4
 0.0034103579     1     5     4    10
 -0.0069568326     1     5     4    11
 -0.6207364219     1     5     5     1
 0.0214441615     1     5     5     3
 -0.0000000018     1     5     5     4
 -0.0000000003     1     5     5    10
 -0.0000000002     1     5     5    11
 -0.0074702049     1     5     6     6
 0.0000000001     1     5     6     9
 0.0014852645     1     5     6    12
 -0.0045942450     1     5     6    13
 -0.0074702049     1     5     7     7
 0.0000000001     1     5     7     8
 -0.0045942450     1     5     7    12
 -0.0014852645     1     5     7    13
 -0.0000000001     1     5     8     6
 0.0000000002     1     5     8     7
 -0.0067387823     1     5     8     8
 0.0000000004     1     5     8    12
 -0.0000000001     1     5     8    13
 0.0000000002     1     5     9     6
 0.0000000001     1     5     9     7
 -0.0067387823     1     5     9     9
 0.0000000001     1     5     9    12
 0.0000000004     1     5     9    13
 -0.0000000422     1     5    10     1
 0.2360205202     1     5    10     2
 0.0000000015     1     5    10     3
 -0.0160904800     1     5    10     4
 -0.0156989574     1     5    10    10
 0.0047043746     1     5    10    11
 0.0000000334     1     5    11     1
 -0.1858652644     1     5    11     2
 -0.0000000012     1     5    11     3
 0.0127952050     1     5    11     4
 0.0116391847     1     5    11    10
 0.0009096684     1     5    11    11
 0.0012790531     1     5    12     6
 -0.0039563887     1     5    12     7
 0.0000000002     1     5    12     8
 0.0000000001     1     5    12     9
 -0.0078363676     1     5    12    12
 -0.0039563887     1     5    13     6
 -0.0012790531     1     5    13     7
 -0.0000000001     1     5    13     8
 0.0000000002     1     5    13     9
 -0.0078363676     1     5    13    13
 -0.0000744219     1     6     2     8
 0.0001092775     1     6     2     9
 -0.0000000001     1     6     3     8
 0.0000000002     1     6     3     9
 0.0026524865     1     6     3    12
 -0.0082047160     1     6     3    13
 -0.0001918807     1     6     4     8
 0.0002817484     1     6     4     9
 -0.0000000001     1     6     4    12
 0.0000000005     1     6     4    13
 0.0000000001     1     6     5     8
 -0.0000000001     1     6     5     9
 0.0001787690     1     6     5    12
 -0.0005529710     1     6     5    13
 -0.5756788459     1     6     6     1
 0.0164519559     1     6     6     3
 -0.0000000015     1     6     6     4
 0.0074702049     1     6     6     5
 -0.0000000003     1     6     6    10
 -0.0000000007     1     6     6    11
 -0.0000000262     1     6     8     1
 0.1466262001     1     6     8     2
 0.0000000008     1     6     8     3
 -0.0091366003     1     6     8     4
 0.0000000001     1     6     8     5
 -0.0054951414     1     6     8    10
 -0.0004033967     1     6     8    11
 0.0000000385     1     6     9     1
 -0.2152987549     1     6     9     2
 -0.0000000011     1     6     9     3
 0.0134157379     1     6     9     4
 -0.0000000002     1     6     9     5
 0.0080687975     1     6     9    10
 0.0005923280     1     6     9    11
 -0.0000319424     1     6    10     8
 0.0000469028     1     6    10     9
 -0.0000000001     1     6    10    12
 0.0000000002     1     6    10    13
 -0.0000708238     1     6    11     8
 0.0001039942     1     6    11     9
 -0.0000000001     1     6    11    13
 0.0596998859     1     6    12     1
 -0.0040315944     1     6    12     3
 0.0000000004     1     6    12     4
 -0.0012790531     1     6    12     5
 0.0000000002     1     6    12    10
 0.0000000002     1     6    12    11
 -0.1846646957     1     6    13     1
 0.0124705958     1     6    13     3
 -0.0000000012     1     6    13     4
 0.0039563887     1     6    13     5
 -0.0000000006     1     6    13    10
 -0.0000000005     1     6    13    11
 0.0001092775     1     7     2     8
 0.0000744219     1     7     2     9
 0.0000000002     1     7     3     8
 0.0000000001     1     7     3     9
 -0.0082047160     1     7     3    12
 -0.0026524865     1     7     3    13
 0.0002817484     1     7     4     8
 0.0001918807     1     7     4     9
 0.0000000005     1     7     4    12
 0.0000000001     1     7     4    13
 -0.0000000001     1     7     5     8
 -0.0000000001     1     7     5     9
 -0.0005529710     1     7     5    12
 -0.0001787690     1     7     5    13
 -0.5756788459     1     7     7     1
 0.0164519559     1     7     7     3
 -0.0000000015     1     7     7     4
 0.0074702049     1     7     7     5
 -0.0000000003     1     7     7    10
 -0.0000000007     1     7     7    11
 0.0000000385     1     7     8     1
 -0.2152987549     1     7     8     2
 -0.0000000011     1     7     8     3
 0.0134157379     1     7     8     4
 -0.0000000002     1     7     8     5
 0.0080687975     1     7     8    10
 0.0005923280     1     7     8    11
 0.0000000262     1     7     9     1
 -0.1466262001     1     7     9     2
 -0.0000000008     1     7     9     3
 0.0091366003     1     7     9     4
 -0.0000000001     1     7     9     5
 0.0054951414     1     7     9    10
 0.0004033967     1     7     9    11
 0.0000469028     1     7    10     8
 0.0000319424     1     7    10     9
 0.0000000002     1     7    10    12
 0.0000000001     1     7    10    13
 0.0001039942     1     7    11     8
 0.0000708238     1     7    11     9
 -0.0000000001     1     7    11    12
 -0.1846646957     1     7    12     1
 0.0124705958     1     7    12     3
 -0.0000000012     1     7    12     4
 0.0039563887     1     7    12     5
 -0.0000000006     1     7    12    10
 -0.0000000005     1     7    12    11
 -0.0596998859     1     7    13     1
 0.0040315944     1     7    13     3
 -0.0000000004     1     7    13     4
 0.0012790531     1     7    13     5
 -0.0000000002     1     7    13    10
 -0.0000000002     1     7    13    11
 0.0000744219     1     8     2     6
 -0.0001092775     1     8     2     7
 -0.0001452268     1     8     2    12
 0.0000425798     1     8     2    13
 0.0000000001     1     8     3     6
 -0.0000000002     1     8     3     7
 0.0000000005     1     8     3    12
 -0.0000000002     1     8     3    13
 0.0001918807     1     8     4     6
 -0.0002817484     1     8     4     7
 -0.0065279861     1     8     4    12
 0.0019139728     1     8     4    13
 -0.0000000001     1     8     5     6
 0.0000000001     1     8     5     7
 0.0000000001     1     8     5    12
 -0.0000000262     1     8     6     1
 0.1466968622     1     8     6     2
 0.0000000009     1     8     6     3
 -0.0091424853     1     8     6     4
 -0.0055863292     1     8     6    10
 -0.0003127413     1     8     6    11
 0.0000000385     1     8     7     1
 -0.2154025115     1     8     7     2
 -0.0000000014     1     8     7     3
 0.0134243791     1     8     7     4
 -0.0000000001     1     8     7     5
 0.0082026931     1     8     7    10
 0.0004592142     1     8     7    11
 -0.5910557145     1     8     8     1
 0.0171079289     1     8     8     3
 -0.0000000018     1     8     8     4
 0.0067387823     1     8     8     5
 -0.0000000005     1     8     8    10
 -0.0000000005     1     8     8    11
 0.0000319424     1     8    10     6
 -0.0000469028     1     8    10     7
 -0.0023425429     1     8    10    12
 0.0006868219     1     8    10    13
 0.0000708238     1     8    11     6
 -0.0001039942     1     8    11     7
 0.0005268622     1     8    11    12
 -0.0001544734     1     8    11    13
 0.0000000361     1     8    12     1
 -0.2018002896     1     8    12     2
 -0.0000000014     1     8    12     3
 0.0157358885     1     8    12     4
 -0.0000000002     1     8    12     5
 0.0080012610     1     8    12    10
 0.0043613649     1     8    12    11
 -0.0000000105     1     8    13     1
 0.0591668331     1     8    13     2
 0.0000000004     1     8    13     3
 -0.0046136837     1     8    13     4
 0.0000000001     1     8    13     5
 -0.0023459296     1     8    13    10
 -0.0012787303     1     8    13    11
 -0.0001092775     1     9     2     6
 -0.0000744219     1     9     2     7
 -0.0000425798     1     9     2    12
 -0.0001452268     1     9     2    13
 -0.0000000002     1     9     3     6
 -0.0000000001     1     9     3     7
 0.0000000002     1     9     3    12
 0.0000000005     1     9     3    13
 -0.0002817484     1     9     4     6
 -0.0001918807     1     9     4     7
 -0.0019139728     1     9     4    12
 -0.0065279861     1     9     4    13
 0.0000000001     1     9     5     6
 0.0000000001     1     9     5     7
 0.0000000001     1     9     5    13
 0.0000000385     1     9     6     1
 -0.2154025115     1     9     6     2
 -0.0000000014     1     9     6     3
 0.0134243791     1     9     6     4
 -0.0000000001     1     9     6     5
 0.0082026931     1     9     6    10
 0.0004592142     1     9     6    11
 0.0000000262     1     9     7     1
 -0.1466968622     1     9     7     2
 -0.0000000009     1     9     7     3
 0.0091424853     1     9     7     4
 0.0055863292     1     9     7    10
 0.0003127413     1     9     7    11
 -0.5910557145     1     9     9     1
 0.0171079289     1     9     9     3
 -0.0000000018     1     9     9     4
 0.0067387823     1     9     9     5
 -0.0000000005     1     9     9    10
 -0.0000000005     1     9     9    11
 -0.0000469028     1     9    10     6
 -0.0000319424     1     9    10     7
 -0.0006868219     1     9    10    12
 -0.0023425429     1     9    10    13
 -0.0001039942     1     9    11     6
 -0.0000708238     1     9    11     7
 0.0001544734     1     9    11    12
 0.0005268622     1     9    11    13
 0.0000000105     1     9    12     1
 -0.0591668331     1     9    12     2
 -0.0000000004     1     9    12     3
 0.0046136837     1     9    12     4
 -0.0000000001     1     9    12     5
 0.0023459296     1     9    12    10
 0.0012787303     1     9    12    11
 0.0000000361     1     9    13     1
 -0.2018002896     1     9    13     2
 -0.0000000014     1     9    13     3
 0.0157358885     1     9    13     4
 -0.0000000002     1     9    13     5
 0.0080012610     1     9    13    10
 0.0043613649     1     9    13    11
 -0.0065712925     1    10     2     1
 -0.0000000006     1    10     2     2
 -0.0000785851     1    10     2     3
 0.0002937938     1    10     2     5
 0.0000000226     1    10     3     1
 -0.1262156554     1    10     3     2
 -0.0000000008     1    10     3     3
 0.0006176095     1    10     3     4
 0.0000000003     1    10     3     5
 0.0052331626     1    10     3    11
 -0.0553552579     1    10     4     1
 -0.0069789936     1    10     4     3
 0.0000000003     1    10     4     4
 -0.0034103579     1    10     4     5
 -0.0000000002     1    10     4    11
 -0.0000000422     1    10     5     1
 0.2363072697     1    10     5     2
 0.0000000018     1    10     5     3
 -0.0200004538     1    10     5     4
 0.0000000003     1    10     5     5
 -0.0071058959     1    10     5    11
 0.0000000003     1    10     6     6
 0.0055863292     1    10     6     8
 -0.0082026931     1    10     6     9
 -0.0000000003     1    10     6    12
 0.0000000008     1    10     6    13
 0.0000000003     1    10     7     7
 -0.0082026931     1    10     7     8
 -0.0055863292     1    10     7     9
 0.0000000008     1    10     7    12
 0.0000000003     1    10     7    13
 0.0054951414     1    10     8     6
 -0.0080687975     1    10     8     7
 0.0000000005     1    10     8     8
 -0.0104454053     1    10     8    12
 0.0030625405     1    10     8    13
 -0.0080687975     1    10     9     6
 -0.0054951414     1    10     9     7
 0.0000000005     1    10     9     9
 -0.0030625405     1    10     9    12
 -0.0104454053     1    10     9    13
 -0.6345315070     1    10    10     1
 0.0143516014     1    10    10     3
 -0.0000000020     1    10    10     4
 0.0156989574     1    10    10     5
 -0.0000000011     1    10    10    11
 0.1982074864     1    10    11     1
 -0.0125487734     1    10    11     3
 0.0000000015     1    10    11     4
 -0.0116391847     1    10    11     5
 0.0000000013     1    10    11    11
 -0.0000000002     1    10    12     6
 0.0000000006     1    10    12     7
 -0.0080012610     1    10    12     8
 -0.0023459296     1    10    12     9
 0.0000000006     1    10    12    12
 0.0000000006     1    10    13     6
 0.0000000002     1    10    13     7
 0.0023459296     1    10    13     8
 -0.0080012610     1    10    13     9
 0.0000000006     1    10    13    13
 0.0070750073     1    11     2     1
 0.0000000006     1    11     2     2
 0.0000731687     1    11     2     3
 -0.0003103512     1    11     2     5
 0.0000000016     1    11     3     1
 -0.0090561543     1    11     3     2
 0.0000000009     1    11     3     3
 0.0004617028     1    11     3     4
 -0.0000000007     1    11     3     5
 -0.0052331626     1    11     3    10
 -0.1073213147     1    11     4     1
 0.0070269132     1    11     4     3
 -0.0000000005     1    11     4     4
 0.0069568326     1    11     4     5
 0.0000000002     1    11     4    10
 0.0000000334     1    11     5     1
 -0.1861796680     1    11     5     2
 -0.0000000021     1    11     5     3
 0.0202517411     1    11     5     4
 0.0000000002     1    11     5     5
 0.0071058959     1    11     5    10
 0.0000000007     1    11     6     6
 0.0003127413     1    11     6     8
 -0.0004592142     1    11     6     9
 -0.0000000002     1    11     6    12
 0.0000000004     1    11     6    13
 0.0000000007     1    11     7     7
 -0.0004592142     1    11     7     8
 -0.0003127413     1    11     7     9
 0.0000000004     1    11     7    12
 0.0000000002     1    11     7    13
 0.0004033967     1    11     8     6
 -0.0005923280     1    11     8     7
 0.0000000005     1    11     8     8
 -0.0038786970     1    11     8    12
 0.0011372145     1    11     8    13
 -0.0005923280     1    11     9     6
 -0.0004033967     1    11     9     7
 0.0000000005     1    11     9     9
 -0.0011372145     1    11     9    12
 -0.0038786970     1    11     9    13
 0.1982074864     1    11    10     1
 -0.0178505463     1    11    10     3
 0.0000000018     1    11    10     4
 -0.0047043746     1    11    10     5
 0.0000000011     1    11    10    10
 -0.5228849283     1    11    11     1
 0.0000000001     1    11    11     2
 0.0171944762     1    11    11     3
 -0.0000000014     1    11    11     4
 -0.0009096684     1    11    11     5
 -0.0000000013     1    11    11    10
 -0.0000000002     1    11    12     6
 0.0000000005     1    11    12     7
 -0.0043613649     1    11    12     8
 -0.0012787303     1    11    12     9
 0.0000000008     1    11    12    12
 0.0000000005     1    11    13     6
 0.0000000002     1    11    13     7
 0.0012787303     1    11    13     8
 -0.0043613649     1    11    13     9
 0.0000000008     1    11    13    13
 0.0001452268     1    12     2     8
 0.0000425798     1    12     2     9
 -0.0026524865     1    12     3     6
 0.0082047160     1    12     3     7
 -0.0000000005     1    12     3     8
 -0.0000000002     1    12     3     9
 0.0000000001     1    12     4     6
 -0.0000000005     1    12     4     7
 0.0065279861     1    12     4     8
 0.0019139728     1    12     4     9
 -0.0001787690     1    12     5     6
 0.0005529710     1    12     5     7
 -0.0000000001     1    12     5     8
 0.0596998859     1    12     6     1
 -0.0068376792     1    12     6     3
 0.0000000006     1    12     6     4
 -0.0014852645     1    12     6     5
 0.0000000003     1    12     6    10
 0.0000000002     1    12     6    11
 -0.1846646957     1    12     7     1
 0.0211504249     1    12     7     3
 -0.0000000018     1    12     7     4
 0.0045942450     1    12     7     5
 -0.0000000008     1    12     7    10
 -0.0000000004     1    12     7    11
 0.0000000361     1    12     8     1
 -0.2016558888     1    12     8     2
 -0.0000000019     1    12     8     3
 0.0226608364     1    12     8     4
 -0.0000000004     1    12     8     5
 0.0104454053     1    12     8    10
 0.0038786970     1    12     8    11
 0.0000000105     1    12     9     1
 -0.0591244956     1    12     9     2
 -0.0000000006     1    12     9     3
 0.0066440436     1    12     9     4
 -0.0000000001     1    12     9     5
 0.0030625405     1    12     9    10
 0.0011372145     1    12     9    11
 0.0000000001     1    12    10     6
 -0.0000000002     1    12    10     7
 0.0023425429     1    12    10     8
 0.0006868219     1    12    10     9
 0.0000000001     1    12    11     7
 -0.0005268622     1    12    11     8
 -0.0001544734     1    12    11     9
 -0.5804976954     1    12    12     1
 0.0000000001     1    12    12     2
 0.0187727878     1    12    12     3
 -0.0000000019     1    12    12     4
 0.0078363676     1    12    12     5
 -0.0000000006     1    12    12    10
 -0.0000000008     1    12    12    11
 -0.0000425798     1    13     2     8
 0.0001452268     1    13     2     9
 0.0082047160     1    13     3     6
 0.0026524865     1    13     3     7
 0.0000000002     1    13     3     8
 -0.0000000005     1    13     3     9
 -0.0000000005     1    13     4     6
 -0.0000000001     1    13     4     7
 -0.0019139728     1    13     4     8
 0.0065279861     1    13     4     9
 0.0005529710     1    13     5     6
 0.0001787690     1    13     5     7
 -0.0000000001     1    13     5     9
 -0.1846646957     1    13     6     1
 0.0211504249     1    13     6     3
 -0.0000000018     1    13     6     4
 0.0045942450     1    13     6     5
 -0.0000000008     1    13     6    10
 -0.0000000004     1    13     6    11
 -0.0596998859     1    13     7     1
 0.0068376792     1    13     7     3
 -0.0000000006     1    13     7     4
 0.0014852645     1    13     7     5
 -0.0000000003     1    13     7    10
 -0.0000000002     1    13     7    11
 -0.0000000105     1    13     8     1
 0.0591244956     1    13     8     2
 0.0000000006     1    13     8     3
 -0.0066440436     1    13     8     4
 0.0000000001     1    13     8     5
 -0.0030625405     1    13     8    10
 -0.0011372145     1    13     8    11
 0.0000000361     1    13     9     1
 -0.2016558888     1    13     9     2
 -0.0000000019     1    13     9     3
 0.0226608364     1    13     9     4
 -0.0000000004     1    13     9     5
 0.0104454053     1    13     9    10
 0.0038786970     1    13     9    11
 -0.0000000002     1    13    10     6
 -0.0000000001     1    13    10     7
 -0.0006868219     1    13    10     8
 0.0023425429     1    13    10     9
 0.0000000001     1    13    11     6
 0.0001544734     1    13    11     8
 -0.0005268622     1    13    11     9
 -0.5804976954     1    13    13     1
 0.0000000001     1    13    13     2
 0.0187727878     1    13    13     3
 -0.0000000019     1    13    13     4
 0.0078363676     1    13    13     5
 -0.0000000006     1    13    13    10
 -0.0000000008     1    13    13    11
 -0.3224122960     2     1     1     2
 -0.0000000002     2     1     1     3
 0.0018051072     2     1     1     4
 0.0000000006     2     1     1     5
 -0.0065712925     2     1     1    10
 0.0070750073     2     1     1    11
 -0.0018264906     2     1     3     2
 0.2671040490     2     1     3     4
 0.1261353316     2     1     3    10
 0.0091272330     2     1     3    11
 -0.0000000002     2     1     4     2
 0.2670734986     2     1     4     3
 0.1743665982     2     1     4     5
 0.0071125865     2     1     5     2
 0.1742882506     2     1     5     4
 -0.2360205202     2     1     5    10
 0.1858652644     2     1     5    11
 -0.1466262001     2     1     6     8
 0.2152987549     2     1     6     9
 0.2152987549     2     1     7     8
 0.1466262001     2     1     7     9
 -0.1466968622     2     1     8     6
 0.2154025115     2     1     8     7
 0.2018002896     2     1     8    12
 -0.0591668331     2     1     8    13
 0.2154025115     2     1     9     6
 0.1466968622     2     1     9     7
 0.0591668331     2     1     9    12
 0.2018002896     2     1     9    13
 0.0000000006     2     1    10     2
 0.1262156554     2     1    10     3
 -0.2363072697     2     1    10     5
 -0.0000000006     2     1    11     2
 0.0090561543     2     1    11     3
 0.1861796680     2     1    11     5
 -0.0000000001     2     1    11    11
 0.2016558888     2     1    12     8