&FCI NORB= 19,NELEC= 14,MS2=0,
 ORBSYM=1,1,1,1,1,1,1,1,1,1,1,1,1,1,1,1,1,1,1
 ISYM=1,
&END
 0.3454514086     1     1     2     2
 -0.0024262217     1     1     2     4
 0.0073257108     1     1     2    10
 -0.0084230637     1     1     2    11
 0.0000000001     1     1     2    14
 0.0000000001     1     1     2    17
 -0.0018646834     1     1     2    18
 0.6519278393     1     1     3     3
 -0.0000000044     1     1     3     4
 -0.0472042149     1     1     3     5
 -0.0000000027     1     1     3    10
 0.0000000002     1     1     3    11
 -0.0693602870     1     1     3    14
 0.1417949640     1     1     3    17
 0.0000000022     1     1     3    18
 -0.0024262217     1     1     4     2
 -0.0000000044     1     1     4     3
 0.6137907656     1     1     4     4
 -0.0000000035     1     1     4     5
 0.0670484345     1     1     4    10
 0.1131018052     1     1     4    11
 0.0000000024     1     1     4    14
 -0.0000000015     1     1     4    17
 -0.1236289142     1     1     4    18
 -0.0472042149     1     1     5     3
 -0.0000000035     1     1     5     4
 0.6290287574     1     1     5     5
 0.0000000040     1     1     5    10
 -0.0000000037     1     1     5    11
 -0.1886698399     1     1     5    14
 -0.0746713661     1     1     5    17
 0.5878599276     1     1     6     6
 -0.0000000028     1     1     6     8
 0.0000000039     1     1     6     9
 -0.1655423809     1     1     6    12
 0.1299043546     1     1     6    13
 -0.0000000023     1     1     6    15
 0.0000000019     1     1     6    16
 0.0047039989     1     1     6    19
 0.5878599276     1     1     7     7
 -0.0000000039     1     1     7     8
 -0.0000000028     1     1     7     9
 0.1299043546     1     1     7    12
 0.1655423809     1     1     7    13
 0.0000000019     1     1     7    15
 0.0000000023     1     1     7    16
 -0.0243539691     1     1     7    19
 -0.0000000028     1     1     8     6
 -0.0000000039     1     1     8     7
 0.5976583839     1     1     8     8
 -0.0000000002     1     1     8    12
 -0.0000000036     1     1     8    13
 -0.0179712748     1     1     8    15
 -0.2232360014     1     1     8    16
 -0.0000000009     1     1     8    19
 0.0000000039     1     1     9     6
 -0.0000000028     1     1     9     7
 0.5976583839     1     1     9     9
 -0.0000000036     1     1     9    12
 0.0000000002     1     1     9    13
 -0.2232360014     1     1     9    15
 0.0179712748     1     1     9    16
 -0.0000000009     1     1     9    19
 0.0073257108     1     1    10     2
 -0.0000000027     1     1    10     3
 0.0670484345     1     1    10     4
 0.0000000040     1     1    10     5
 0.6295979772     1     1    10    10
 -0.2089740169     1     1    10    11
 -0.0000000007     1     1    10    14
 -0.0000000019     1     1    10    17
 -0.1165177559     1     1    10    18
 -0.0084230637     1     1    11     2
 0.0000000002     1     1    11     3
 0.1131018052     1     1    11     4
 -0.0000000037     1     1    11     5
 -0.2089740169     1     1    11    10
 0.5434652618     1     1    11    11
 0.0000000044     1     1    11    14
 0.0000000012     1     1    11    17
 0.0047733188     1     1    11    18
 -0.1655423809     1     1    12     6
 0.1299043546     1     1    12     7
 -0.0000000002     1     1    12     8
 -0.0000000036     1     1    12     9
 0.5837288832     1     1    12    12
 0.0000000048     1     1    12    15
 -0.0000000002     1     1    12    16
 0.0187425156     1     1    12    19
 0.1299043546     1     1    13     6
 0.1655423809     1     1    13     7
 -0.0000000036     1     1    13     8
 0.0000000002     1     1    13     9
 0.5837288832     1     1    13    13
 0.0000000002     1     1    13    15
 0.0000000048     1     1    13    16
 0.0162615757     1     1    13    19
 0.0000000001     1     1    14     2
 -0.0693602870     1     1    14     3
 0.0000000024     1     1    14     4
 -0.1886698399     1     1    14     5
 -0.0000000007     1     1    14    10
 0.0000000044     1     1    14    11
 0.4944337469     1     1    14    14
 0.0048403746     1     1    14    17
 -0.0000000014     1     1    14    18
 -0.0000000023     1     1    15     6
 0.0000000019     1     1    15     7
 -0.0179712748     1     1    15     8
 -0.2232360014     1     1    15     9
 0.0000000048     1     1    15    12
 0.0000000002     1     1    15    13
 0.5529970879     1     1    15    15
 -0.0000000001     1     1    15    19
 0.0000000019     1     1    16     6
 0.0000000023     1     1    16     7
 -0.2232360014     1     1    16     8
 0.0179712748     1     1    16     9
 -0.0000000002     1     1    16    12
 0.0000000048     1     1    16    13
 0.5529970879     1     1    16    16
 0.0000000001     1     1    17     2
 0.1417949640     1     1    17     3
 -0.0000000015     1     1    17     4
 -0.0746713661     1     1    17     5
 -0.0000000019     1     1    17    10
 0.0000000012     1     1    17    11
 0.0048403746     1     1    17    14
 0.5392948134     1     1    17    17
 0.0000000030     1     1    17    18
 -0.0018646834     1     1    18     2
 0.0000000022     1     1    18     3
 -0.1236289142     1     1    18     4
 -0.1165177559     1     1    18    10
 0.0047733188     1     1    18    11
 -0.0000000014     1     1    18    14
 0.0000000030     1     1    18    17
 0.4952059632     1     1    18    18
 0.0047039989     1     1    19     6
 -0.0243539691     1     1    19     7
 -0.0000000009     1     1    19     8
 -0.0000000009     1     1    19     9
 0.0187425156     1     1    19    12
 0.0162615757     1     1    19    13
 -0.0000000001     1     1    19    15
 0.5559843907     1     1    19    19
 -0.3454514086     1     2     2     1
 -0.0024607155     1     2     2     3
 -0.0000000001     1     2     2     4
 0.0082195674     1     2     2     5
 0.0000000001     1     2     2    10
 -0.0000000001     1     2     2    11
 -0.0061825452     1     2     2    14
 -0.0045447759     1     2     2    17
 0.2461725887     1     2     3     4
 0.1519967111     1     2     3    10
 -0.0105856735     1     2     3    11
 -0.1233464605     1     2     3    18
 0.0024262217     1     2     4     1
 0.2462094110     1     2     4     3
 0.1945419625     1     2     4     5
 -0.1395556819     1     2     4    14
 0.0834856346     1     2     4    17
 0.1946613148     1     2     5     4
 -0.2226516397     1     2     5    10
 0.2080714108     1     2     5    11
 0.0021626762     1     2     5    18
 0.1578753819     1     2     6     8
 -0.2199413683     1     2     6     9
 0.1308873081     1     2     6    15
 -0.1108969509     1     2     6    16
 0.2199413683     1     2     7     8
 0.1578753819     1     2     7     9
 -0.1108969509     1     2     7    15
 -0.1308873081     1     2     7    16
 0.1577750498     1     2     8     6
 0.2198015922     1     2     8     7
 0.0086844479     1     2     8    12
 0.2028934249     1     2     8    13
 0.0494928872     1     2     8    19
 -0.2198015922     1     2     9     6
 0.1577750498     1     2     9     7
 0.2028934249     1     2     9    12
 -0.0086844479     1     2     9    13
 0.0523430512     1     2     9    19
 -0.0073257108     1     2    10     1
 0.1518873362     1     2    10     3
 -0.2223042261     1     2    10     5
 0.0401057631     1     2    10    14
 0.1059359358     1     2    10    17
 0.0084230637     1     2    11     1
 -0.0104593061     1     2    11     3
 0.2076695325     1     2    11     5
 -0.2487743205     1     2    11    14
 -0.0687213166     1     2    11    17
 0.0086931434     1     2    12     8
 0.2030965774     1     2    12     9
 -0.2739389111     1     2    12    15
 0.0102921629     1     2    12    16
 0.2030965774     1     2    13     8
 -0.0086931434     1     2    13     9
 -0.0102921629     1     2    13    15
 -0.2739389111     1     2    13    16
 -0.0000000001     1     2    14     1
 -0.1396460157     1     2    14     4
 0.0403668817     1     2    14    10
 -0.2490766856     1     2    14    11
 0.0784119466     1     2    14    18
 0.1307365933     1     2    15     6
 -0.1107692547     1     2    15     7
 -0.2737054158     1     2    15    12
 -0.0102833903     1     2    15    13
 0.0044788057     1     2    15    19
 -0.1107692547     1     2    16     6
 -0.1307365933     1     2    16     7
 0.0102833903     1     2    16    12
 -0.2737054158     1     2    16    13
 0.0036003126     1     2    16    19
 -0.0000000001     1     2    17     1
 0.0834155663     1     2    17     4
 0.1061404431     1     2    17    10
 -0.0689584340     1     2    17    11
 -0.1680531096     1     2    17    18
 0.0018646834     1     2    18     1
 -0.1233194151     1     2    18     3
 0.0020772032     1     2    18     5
 0.0784757152     1     2    18    14
 -0.1680026727     1     2    18    17
 0.0494808870     1     2    19     8
 0.0523303600     1     2    19     9
 0.0044941533     1     2    19    15
 0.0036126498     1     2    19    16
 0.0024607155     1     3     2     2
 -0.0000368223     1     3     2     4
 0.0001093749     1     3     2    10
 -0.0001263674     1     3     2    11
 -0.0000270454     1     3     2    18
 -0.6519278393     1     3     3     1
 0.0105246533     1     3     3     5
 0.0000000001     1     3     3    10
 -0.0000000001     1     3     3    11
 -0.0101837819     1     3     3    14
 -0.0068155351     1     3     3    17
 0.0000000044     1     3     4     1
 -0.2462094110     1     3     4     2
 -0.0036012128     1     3     4     4
 0.0000000001     1     3     4     5
 0.0074484450     1     3     4    10
 -0.0085053791     1     3     4    11
 -0.0000000001     1     3     4    14
 -0.0000000001     1     3     4    17
 -0.0003285347     1     3     4    18
 0.0472042149     1     3     5     1
 0.0000000001     1     3     5     4
 -0.0215790207     1     3     5     5
 -0.0000000001     1     3     5    10
 0.0000000003     1     3     5    11
 0.0188542914     1     3     5    14
 0.0086393875     1     3     5    17
 -0.0163362901     1     3     6     6
 0.0000000001     1     3     6     8
 -0.0000000001     1     3     6     9
 0.0179424822     1     3     6    12
 -0.0140798178     1     3     6    13
 0.0000000001     1     3     6    15
 -0.0000000001     1     3     6    16
 0.0007541870     1     3     6    19
 -0.0163362901     1     3     7     7
 0.0000000001     1     3     7     8
 0.0000000001     1     3     7     9
 -0.0140798178     1     3     7    12
 -0.0179424822     1     3     7    13
 -0.0000000001     1     3     7    15
 -0.0000000001     1     3     7    16
 -0.0039046450     1     3     7    19
 0.0000000001     1     3     8     6
 0.0000000001     1     3     8     7
 -0.0171328412     1     3     8     8
 0.0000000002     1     3     8    13
 0.0016125316     1     3     8    15
 0.0200305821     1     3     8    16
 -0.0000000001     1     3     9     6
 0.0000000001     1     3     9     7
 -0.0171328412     1     3     9     9
 0.0000000002     1     3     9    12
 0.0200305821     1     3     9    15
 -0.0016125316     1     3     9    16
 0.0000000027     1     3    10     1
 -0.1518873362     1     3    10     2
 0.0090539375     1     3    10     4
 -0.0000000001     1     3    10     5
 -0.0119949810     1     3    10    10
 0.0173907421     1     3    10    11
 0.0000000001     1     3    10    14
 0.0003664280     1     3    10    18
 -0.0000000002     1     3    11     1
 0.0104593061     1     3    11     2
 -0.0084790155     1     3    11     4
 0.0000000002     1     3    11     5
 0.0119464665     1     3    11    10
 -0.0187942920     1     3    11    11
 -0.0000000002     1     3    11    14
 -0.0000679208     1     3    11    18
 0.0110115837     1     3    12     6
 -0.0086410058     1     3    12     7
 0.0000000002     1     3    12     9
 -0.0185578019     1     3    12    12
 -0.0000000002     1     3    12    15
 -0.0020164140     1     3    12    19
 -0.0086410058     1     3    13     6
 -0.0110115837     1     3    13     7
 0.0000000002     1     3    13     8
 -0.0185578019     1     3    13    13
 -0.0000000002     1     3    13    16
 -0.0017495021     1     3    13    19
 0.0693602870     1     3    14     1
 -0.0000000001     1     3    14     4
 0.0107343401     1     3    14     5
 0.0000000001     1     3    14    10
 -0.0000000001     1     3    14    11
 -0.0109873494     1     3    14    14
 -0.0038802944     1     3    14    17
 0.0000000001     1     3    15     6
 0.0011585989     1     3    15     8
 0.0143919107     1     3    15     9
 -0.0000000002     1     3    15    12
 -0.0175915738     1     3    15    15
 -0.0000000001     1     3    16     7
 0.0143919107     1     3    16     8
 -0.0011585989     1     3    16     9
 -0.0000000002     1     3    16    13
 -0.0175915738     1     3    16    16
 -0.1417949640     1     3    17     1
 -0.0000000001     1     3    17     4
 0.0077243373     1     3    17     5
 -0.0000000001     1     3    17    11
 -0.0078836002     1     3    17    14
 -0.0029017127     1     3    17    17
 -0.0000000022     1     3    18     1
 0.1233194151     1     3    18     2
 -0.0014644984     1     3    18     4
 0.0017398707     1     3    18    10
 -0.0030916021     1     3    18    11
 -0.0000000001     1     3    18    14
 -0.0000250401     1     3    18    18
 0.0001872248     1     3    19     6
 -0.0009693173     1     3    19     7
 0.0004812133     1     3    19    12
 0.0004175152     1     3    19    13
 -0.0014794198     1     3    19    19
 0.0024262217     1     4     2     1
 0.0000000001     1     4     2     2
 0.0000368223     1     4     2     3
 -0.0001193523     1     4     2     5
 0.0000903338     1     4     2    14
 0.0000700683     1     4     2    17
 0.0000000044     1     4     3     1
 -0.2461725887     1     4     3     2
 -0.0016054925     1     4     3    10
 -0.0000263636     1     4     3    11
 0.0011359637     1     4     3    18
 -0.6137907656     1     4     4     1
 0.0036012128     1     4     4     3
 -0.0027119845     1     4     4     5
 0.0040318920     1     4     4    14
 0.0040180455     1     4     4    17
 0.0000000001     1     4     4    18
 0.0000000035     1     4     5     1
 -0.1946613148     1     4     5     2
 -0.0000000001     1     4     5     3
 0.0000000001     1     4     5     5
 0.0200390624     1     4     5    10
 -0.0217083042     1     4     5    11
 -0.0000000001     1     4     5    14
 -0.0000000001     1     4     5    17
 -0.0081564165     1     4     5    18
 0.0000000002     1     4     6     6
 -0.0095716335     1     4     6     8
 0.0133345563     1     4     6     9
 -0.0000000001     1     4     6    12
 0.0000000001     1     4     6    13
 -0.0156285228     1     4     6    15
 0.0132415859     1     4     6    16
 0.0000000002     1     4     7     7
 -0.0133345563     1     4     7     8
 -0.0095716335     1     4     7     9
 0.0000000001     1     4     7    12
 0.0000000001     1     4     7    13
 0.0132415859     1     4     7    15
 0.0156285228     1     4     7    16
 -0.0103398005     1     4     8     6
 -0.0144047149     1     4     8     7
 0.0000000001     1     4     8     8
 -0.0010384921     1     4     8    12
 -0.0242621316     1     4     8    13
 -0.0000000003     1     4     8    16
 -0.0001869588     1     4     8    19
 0.0144047149     1     4     9     6
 -0.0103398005     1     4     9     7
 0.0000000001     1     4     9     9
 -0.0242621316     1     4     9    12
 0.0010384921     1     4     9    13
 -0.0000000003     1     4     9    15
 -0.0001977253     1     4     9    19
 -0.0670484345     1     4    10     1
 -0.0090539375     1     4    10     3
 0.0162498030     1     4    10     5
 0.0000000002     1     4    10    10
 -0.0000000002     1     4    10    11
 -0.0130321786     1     4    10    14
 -0.0135199036     1     4    10    17
 -0.0000000001     1     4    10    18
 -0.1131018052     1     4    11     1
 0.0084790155     1     4    11     3
 -0.0141738013     1     4    11     5
 -0.0000000002     1     4    11    10
 0.0000000002     1     4    11    11
 0.0096063526     1     4    11    14
 0.0122689981     1     4    11    17
 -0.0000000001     1     4    12     6
 -0.0006898544     1     4    12     8
 -0.0161169632     1     4    12     9
 0.0000000002     1     4    12    12
 0.0191356451     1     4    12    15
 -0.0007189456     1     4    12    16
 0.0000000001     1     4    13     7
 -0.0161169632     1     4    13     8
 0.0006898544     1     4    13     9
 0.0000000002     1     4    13    13
 0.0007189456     1     4    13    15
 0.0191356451     1     4    13    16
 -0.0000000024     1     4    14     1
 0.1396460157     1     4    14     2
 0.0000000001     1     4    14     3
 -0.0000000001     1     4    14     5
 -0.0120122178     1     4    14    10
 0.0107014227     1     4    14    11
 0.0000000001     1     4    14    17
 0.0051883255     1     4    14    18
 -0.0107993488     1     4    15     6
 0.0091499694     1     4    15     7
 -0.0000000002     1     4    15     9
 0.0184190825     1     4    15    12
 0.0006920236     1     4    15    13
 0.0000000002     1     4    15    15
 0.0004914828     1     4    15    19
 0.0091499694     1     4    16     6
 0.0107993488     1     4    16     7
 -0.0000000002     1     4    16     8
 -0.0006920236     1     4    16    12
 0.0184190825     1     4    16    13
 0.0000000002     1     4    16    16
 0.0003950811     1     4    16    19
 0.0000000015     1     4    17     1
 -0.0834155663     1     4    17     2
 0.0000000001     1     4    17     3
 -0.0066340598     1     4    17    10
 0.0056047773     1     4    17    11
 0.0000000001     1     4    17    17
 0.0029656566     1     4    17    18
 0.1236289142     1     4    18     1
 0.0014644984     1     4    18     3
 -0.0030728154     1     4    18     5
 -0.0000000001     1     4    18    10
 0.0018202592     1     4    18    14
 0.0022521174     1     4    18    17
 0.0000000001     1     4    18    18
 -0.0018270490     1     4    19     8
 -0.0019322639     1     4    19     9
 0.0034868370     1     4    19    15
 0.0028029130     1     4    19    16
 -0.0082195674     1     5     2     2
 0.0001193523     1     5     2     4
 -0.0003474136     1     5     2    10
 0.0004018783     1     5     2    11
 0.0000854730     1     5     2    18
 0.0472042149     1     5     3     1
 -0.0105246533     1     5     3     3
 0.0000000001     1     5     3    11
 0.0081199513     1     5     3    14
 0.0009150502     1     5     3    17
 0.0000000035     1     5     4     1
 -0.1945419625     1     5     4     2
 -0.0000000001     1     5     4     3
 0.0027119845     1     5     4     4
 0.0037892594     1     5     4    10
 -0.0075345029     1     5     4    11
 -0.0000000001     1     5     4    17
 -0.0050836011     1     5     4    18
 -0.6290287574     1     5     5     1
 0.0215790207     1     5     5     3
 -0.0000000001     1     5     5     4
 -0.0039236640     1     5     5    14
 0.0142397483     1     5     5    17
 0.0000000001     1     5     5    18
 -0.0087271710     1     5     6     6
 0.0048032047     1     5     6    12
 -0.0037691691     1     5     6    13
 -0.0015441062     1     5     6    19
 -0.0087271710     1     5     7     7
 -0.0037691691     1     5     7    12
 -0.0048032047     1     5     7    13
 0.0079942862     1     5     7    19
 -0.0078467930     1     5     8     8
 0.0000000001     1     5     8    13
 0.0007394713     1     5     8    15
 0.0091855813     1     5     8    16
 -0.0000000001     1     5     8    19
 -0.0078467930     1     5     9     9
 0.0000000001     1     5     9    12
 0.0091855813     1     5     9    15
 -0.0007394713     1     5     9    16
 -0.0000000001     1     5     9    19
 -0.0000000040     1     5    10     1
 0.2223042261     1     5    10     2
 0.0000000001     1     5    10     3
 -0.0162498030     1     5    10     4
 -0.0167745618     1     5    10    10
 0.0067760368     1     5    10    11
 0.0000000001     1     5    10    17
 0.0144317225     1     5    10    18
 0.0000000037     1     5    11     1
 -0.2076695325     1     5    11     2
 -0.0000000002     1     5    11     3
 0.0141738013     1     5    11     4
 0.0142955070     1     5    11    10
 -0.0014179065     1     5    11    11
 0.0000000001     1     5    11    14
 -0.0000000002     1     5    11    17
 -0.0143008915     1     5    11    18
 0.0039980624     1     5    12     6
 -0.0031373581     1     5    12     7
 -0.0086545711     1     5    12    12
 0.0024401518     1     5    12    19
 -0.0031373581     1     5    13     6
 -0.0039980624     1     5    13     7
 -0.0086545711     1     5    13    13
 0.0021171498     1     5    13    19
 0.1886698399     1     5    14     1
 -0.0107343401     1     5    14     3
 0.0000000001     1     5    14     4
 0.0000000001     1     5    14    10
 0.0000000001     1     5    14    11
 0.0054419605     1     5    14    14
 -0.0089895903     1     5    14    17
 0.0004288876     1     5    15     8
 0.0053275658     1     5    15     9
 -0.0063352439     1     5    15    15
 0.0053275658     1     5    16     8
 -0.0004288876     1     5    16     9
 -0.0063352439     1     5    16    16
 0.0746713661     1     5    17     1
 -0.0077243373     1     5    17     3
 0.0056652880     1     5    17    14
 -0.0094729374     1     5    17    17
 -0.0020772032     1     5    18     2
 0.0030728154     1     5    18     4
 0.0035134785     1     5    18    10
 0.0008467562     1     5    18    11
 0.0000000001     1     5    18    14
 -0.0051095292     1     5    18    18
 -0.0000928457     1     5    19     6
 0.0004806889     1     5    19     7
 -0.0056566518     1     5    19    12
 -0.0049078829     1     5    19    13
 -0.0000000001     1     5    19    15
 -0.0000000001     1     5    19    16
 -0.0052159232     1     5    19    19
 0.0001003321     1     6     2     8
 -0.0001397761     1     6     2     9
 0.0001507148     1     6     2    15
 -0.0001276962     1     6     2    16
 0.0069308985     1     6     3    12
 -0.0054388120     1     6     3    13
 -0.0000000001     1     6     3    16
 0.0005669622     1     6     3    19
 0.0007681670     1     6     4     8
 -0.0010701586     1     6     4     9
 0.0000000001     1     6     4    13
 -0.0048291740     1     6     4    15
 0.0040916165     1     6     4    16
 0.0008051423     1     6     5    12
 -0.0006318110     1     6     5    13
 -0.0014512605     1     6     5    19
 -0.5878599276     1     6     6     1
 0.0163362901     1     6     6     3
 -0.0000000002     1     6     6     4
 0.0087271710     1     6     6     5
 -0.0000000001     1     6     6    10
 -0.0000000001     1     6     6    11
 -0.0106804819     1     6     6    14
 0.0017937661     1     6     6    17
 0.0000000028     1     6     8     1
 -0.1577750498     1     6     8     2
 -0.0000000001     1     6     8     3
 0.0103398005     1     6     8     4
 0.0065612639     1     6     8    10
 -0.0002438478     1     6     8    11
 -0.0046258149     1     6     8    18
 -0.0000000039     1     6     9     1
 0.2198015922     1     6     9     2
 0.0000000001     1     6     9     3
 -0.0144047149     1     6     9     4
 -0.0091407118     1     6     9    10
 0.0003397124     1     6     9    11
 0.0064443744     1     6     9    18
 -0.0000481258     1     6    10     8
 0.0000670457     1     6    10     9
 -0.0000000001     1     6    10    12
 -0.0012340013     1     6    10    15
 0.0010455328     1     6    10    16
 0.0000765570     1     6    11     8
 -0.0001066540     1     6    11     9
 0.0007441708     1     6    11    15
 -0.0006305140     1     6    11    16
 0.1655423809     1     6    12     1
 -0.0110115837     1     6    12     3
 0.0000000001     1     6    12     4
 -0.0039980624     1     6    12     5
 0.0087871507     1     6    12    14
 -0.0086971753     1     6    12    17
 -0.0000000001     1     6    12    18
 -0.1299043546     1     6    13     1
 0.0086410058     1     6    13     3
 0.0031373581     1     6    13     5
 -0.0068954496     1     6    13    14
 0.0068248442     1     6    13    17
 0.0007724242     1     6    14    12
 -0.0006061364     1     6    14    13
 0.0003249966     1     6    14    19
 0.0000000023     1     6    15     1
 -0.1307365933     1     6    15     2
 -0.0000000001     1     6    15     3
 0.0107993488     1     6    15     4
 0.0062880921     1     6    15    10
 0.0035658406     1     6    15    11
 -0.0100260171     1     6    15    18
 -0.0000000019     1     6    16     1
 0.1107692547     1     6    16     2
 -0.0091499694     1     6    16     4
 -0.0053277148     1     6    16    10
 -0.0030212315     1     6    16    11
 0.0084947481     1     6    16    18
 -0.0041683954     1     6    17    12
 0.0032710218     1     6    17    13
 0.0000471052     1     6    17    19
 0.0003714556     1     6    18     8
 -0.0005174869     1     6    18     9
 -0.0000000001     1     6    18    12
 -0.0027535130     1     6    18    15
 0.0023329702     1     6    18    16
 -0.0047039989     1     6    19     1
 -0.0001872248     1     6    19     3
 0.0000928457     1     6    19     5
 -0.0009281628     1     6    19    14
 -0.0010808552     1     6    19    17
 0.0001397761     1     7     2     8
 0.0001003321     1     7     2     9
 -0.0001276962     1     7     2    15
 -0.0001507148     1     7     2    16
 -0.0054388120     1     7     3    12
 -0.0069308985     1     7     3    13
 -0.0000000001     1     7     3    15
 -0.0029353277     1     7     3    19
 0.0010701586     1     7     4     8
 0.0007681670     1     7     4     9
 0.0000000001     1     7     4    12
 0.0040916165     1     7     4    15
 0.0048291740     1     7     4    16
 -0.0006318110     1     7     5    12
 -0.0008051423     1     7     5    13
 0.0075135973     1     7     5    19
 -0.5878599276     1     7     7     1
 0.0163362901     1     7     7     3
 -0.0000000002     1     7     7     4
 0.0087271710     1     7     7     5
 -0.0000000001     1     7     7    10
 -0.0000000001     1     7     7    11
 -0.0106804819     1     7     7    14
 0.0017937661     1     7     7    17
 0.0000000039     1     7     8     1
 -0.2198015922     1     7     8     2
 -0.0000000001     1     7     8     3
 0.0144047149     1     7     8     4
 0.0091407118     1     7     8    10
 -0.0003397124     1     7     8    11
 -0.0064443744     1     7     8    18
 0.0000000028     1     7     9     1
 -0.1577750498     1     7     9     2
 -0.0000000001     1     7     9     3
 0.0103398005     1     7     9     4
 0.0065612639     1     7     9    10
 -0.0002438478     1     7     9    11
 -0.0046258149     1     7     9    18
 -0.0000670457     1     7    10     8
 -0.0000481258     1     7    10     9
 0.0000000001     1     7    10    13
 0.0010455328     1     7    10    15
 0.0012340013     1     7    10    16
 0.0000000001     1     7    10    19
 0.0001066540     1     7    11     8
 0.0000765570     1     7    11     9
 -0.0006305140     1     7    11    15
 -0.0007441708     1     7    11    16
 -0.1299043546     1     7    12     1
 0.0086410058     1     7    12     3
 0.0031373581     1     7    12     5
 -0.0068954496     1     7    12    14
 0.0068248442     1     7    12    17
 -0.1655423809     1     7    13     1
 0.0110115837     1     7    13     3
 -0.0000000001     1     7    13     4
 0.0039980624     1     7    13     5
 -0.0087871507     1     7    13    14
 0.0086971753     1     7    13    17
 0.0000000001     1     7    13    18
 -0.0006061364     1     7    14    12
 -0.0007724242     1     7    14    13
 -0.0016826023     1     7    14    19
 -0.0000000019     1     7    15     1
 0.1107692547     1     7    15     2
 -0.0091499694     1     7    15     4
 -0.0053277148     1     7    15    10
 -0.0030212315     1     7    15    11
 0.0084947481     1     7    15    18
 -0.0000000023     1     7    16     1
 0.1307365933     1     7    16     2
 0.0000000001     1     7    16     3
 -0.0107993488     1     7    16     4
 -0.0062880921     1     7    16    10
 -0.0035658406     1     7    16    11
 0.0100260171     1     7    16    18
 0.0032710218     1     7    17    12
 0.0041683954     1     7    17    13
 -0.0002438770     1     7    17    19
 0.0005174869     1     7    18     8
 0.0003714556     1     7    18     9
 0.0000000001     1     7    18    13
 0.0023329702     1     7    18    15
 0.0027535130     1     7    18    16
 0.0243539691     1     7    19     1
 0.0009693173     1     7    19     3
 -0.0004806889     1     7    19     5
 0.0000000001     1     7    19    11
 0.0048053682     1     7    19    14
 0.0055959018     1     7    19    17
 -0.0001003321     1     8     2     6
 -0.0001397761     1     8     2     7
 -0.0000086955     1     8     2    12
 -0.0002031525     1     8     2    13
 0.0000120002     1     8     2    19
 0.0004539327     1     8     3    15
 0.0056386714     1     8     3    16
 -0.0007681670     1     8     4     6
 -0.0010701586     1     8     4     7
 -0.0003486377     1     8     4    12
 -0.0081451684     1     8     4    13
 -0.0000000001     1     8     4    16
 0.0016400902     1     8     4    19
 0.0000000001     1     8     5    13
 0.0003105837     1     8     5    15
 0.0038580155     1     8     5    16
 -0.0000000001     1     8     5    19
 0.0000000028     1     8     6     1
 -0.1578753819     1     8     6     2
 -0.0000000001     1     8     6     3
 0.0095716335     1     8     6     4
 0.0066093897     1     8     6    10
 -0.0003204048     1     8     6    11
 -0.0049972705     1     8     6    18
 0.0000000039     1     8     7     1
 -0.2199413683     1     8     7     2
 -0.0000000001     1     8     7     3
 0.0133345563     1     8     7     4
 0.0092077575     1     8     7    10
 -0.0004463664     1     8     7    11