&FCI NORB= 13,NELEC= 14,MS2=0,
 ORBSYM=1,1,1,1,1,1,1,1,1,1,1,1,1
 ISYM=1,
&END
 0.3224132833     1     1     2     2
 0.0000000001     1     1     2     3
 -0.0018482069     1     1     2     4
 -0.0000000003     1     1     2     5
 0.0065789409     1     1     2    10
 -0.0070893543     1     1     2    11
 0.0000000001     1     1     3     2
 0.6303856354     1     1     3     3
 -0.0000000226     1     1     3     4
 -0.0408534051     1     1     3     5
 -0.0000000107     1     1     3    10
 -0.0000000007     1     1     3    11
 -0.0018482069     1     1     4     2
 -0.0000000226     1     1     4     3
 0.6090064012     1     1     4     4
 -0.0000000148     1     1     4     5
 0.0554390419     1     1     4    10
 0.1078983401     1     1     4    11
 -0.0000000003     1     1     5     2
 -0.0408534051     1     1     5     3
 -0.0000000148     1     1     5     4
 0.6214230565     1     1     5     5
 0.0000000200     1     1     5    10
 -0.0000000158     1     1     5    11
 0.5749166521     1     1     6     6
 0.0000000110     1     1     6     8
 -0.0000000192     1     1     6     9
 -0.0840293738     1     1     6    12
 0.1757872966     1     1     6    13
 0.5749166521     1     1     7     7
 -0.0000000192     1     1     7     8
 -0.0000000110     1     1     7     9
 0.1757872966     1     1     7    12
 0.0840293738     1     1     7    13
 0.0000000110     1     1     8     6
 -0.0000000192     1     1     8     7
 0.5911661707     1     1     8     8
 -0.0000000178     1     1     8    12
 0.0000000013     1     1     8    13
 -0.0000000192     1     1     9     6
 -0.0000000110     1     1     9     7
 0.5911661707     1     1     9     9
 -0.0000000013     1     1     9    12
 -0.0000000178     1     1     9    13
 0.0065789409     1     1    10     2
 -0.0000000107     1     1    10     3
 0.0554390419     1     1    10     4
 0.0000000200     1     1    10     5
 0.6347741233     1     1    10    10
 -0.1986745608     1     1    10    11
 -0.0070893543     1     1    11     2
 -0.0000000007     1     1    11     3
 0.1078983401     1     1    11     4
 -0.0000000158     1     1    11     5
 -0.1986745608     1     1    11    10
 0.5229334402     1     1    11    11
 -0.0840293738     1     1    12     6
 0.1757872966     1     1    12     7
 -0.0000000178     1     1    12     8
 -0.0000000013     1     1    12     9
 0.5803193569     1     1    12    12
 0.1757872966     1     1    13     6
 0.0840293738     1     1    13     7
 0.0000000013     1     1    13     8
 -0.0000000178     1     1    13     9
 0.5803193569     1     1    13    13
 -0.3224132833     1     2     2     1
 -0.0018063254     1     2     2     3
 0.0071868531     1     2     2     5
 0.0000000003     1     2     2    10
 -0.0000000003     1     2     2    11
 -0.0000000001     1     2     3     1
 0.2672075579     1     2     3     4
 0.1258700052     1     2     3    10
 0.0089310059     1     2     3    11
 0.0018482069     1     2     4     1
 0.2672330515     1     2     4     3
 0.1751258922     1     2     4     5
 0.0000000003     1     2     5     1
 0.1752073887     1     2     5     4
 -0.2367830877     1     2     5    10
 0.1860651087     1     2     5    11
 -0.1301715936     1     2     6     8
 0.2268906488     1     2     6     9
 0.2268906488     1     2     7     8
 0.1301715936     1     2     7     9
 -0.1301087016     1     2     8     6
 0.2267810273     1     2     8     7
 0.2104053098     1     2     8    12
 -0.0158024584     1     2     8    13
 0.2267810273     1     2     9     6
 0.1301087016     1     2     9     7
 0.0158024584     1     2     9    12
 0.2104053098     1     2     9    13
 -0.0065789409     1     2    10     1
 0.1257873141     1     2    10     3
 -0.2364946296     1     2    10     5
 0.0070893543     1     2    11     1
 0.0090019833     1     2    11     3
 0.1857489027     1     2    11     5
 -0.0000000001     1     2    11    11
 0.2105561851     1     2    12     8
 0.0158137898     1     2    12     9
 -0.0000000001     1     2    12    12
 -0.0158137898     1     2    13     8
 0.2105561851     1     2    13     9
 -0.0000000001     1     2    13    13
 -0.0000000001     1     3     2     1
 0.0018063254     1     3     2     2
 -0.0000212275     1     3     2     4
 0.0000815052     1     3     2    10
 -0.0000724033     1     3     2    11
 -0.6303856354     1     3     3     1
 -0.0000000001     1     3     3     4
 0.0088177025     1     3     3     5
 0.0000000004     1     3     3    10
 -0.0000000005     1     3     3    11
 0.0000000226     1     3     4     1
 -0.2672330515     1     3     4     2
 -0.0026987052     1     3     4     4
 0.0000000004     1     3     4     5
 0.0070424543     1     3     4    10
 -0.0071325316     1     3     4    11
 0.0408534051     1     3     5     1
 0.0000000004     1     3     5     4
 -0.0215730793     1     3     5     5
 -0.0000000009     1     3     5    10
 0.0000000010     1     3     5    11
 -0.0164471912     1     3     6     6
 -0.0000000004     1     3     6     8
 0.0000000007     1     3     6     9
 0.0096503038     1     3     6    12
 -0.0201881882     1     3     6    13
 -0.0164471912     1     3     7     7
 0.0000000007     1     3     7     8
 0.0000000004     1     3     7     9
 -0.0201881882     1     3     7    12
 -0.0096503038     1     3     7    13
 -0.0000000003     1     3     8     6
 0.0000000006     1     3     8     7
 -0.0172613782     1     3     8     8
 0.0000000009     1     3     8    12
 0.0000000006     1     3     9     6
 0.0000000003     1     3     9     7
 -0.0172613782     1     3     9     9
 0.0000000009     1     3     9    13
 0.0000000107     1     3    10     1
 -0.1257873141     1     3    10     2
 0.0075301414     1     3    10     4
 -0.0000000007     1     3    10     5
 -0.0144988792     1     3    10    10
 0.0180074653     1     3    10    11
 0.0000000007     1     3    11     1
 -0.0090019833     1     3    11     2
 -0.0064940649     1     3    11     4
 0.0000000006     1     3    11     5
 0.0126444531     1     3    11    10
 -0.0173270972     1     3    11    11
 0.0057157987     1     3    12     6
 -0.0119573044     1     3    12     7
 0.0000000007     1     3    12     8
 -0.0188459272     1     3    12    12
 -0.0119573044     1     3    13     6
 -0.0057157987     1     3    13     7
 0.0000000007     1     3    13     9
 -0.0188459272     1     3    13    13
 0.0018482069     1     4     2     1
 0.0000212275     1     4     2     3
 -0.0000843903     1     4     2     5
 0.0000000226     1     4     3     1
 -0.2672075579     1     4     3     2
 0.0000000001     1     4     3     3
 -0.0006095794     1     4     3    10
 -0.0004817584     1     4     3    11
 -0.6090064012     1     4     4     1
 0.0026987052     1     4     4     3
 -0.0025025015     1     4     4     5
 -0.0000000002     1     4     4    10
 0.0000000002     1     4     4    11
 0.0000000148     1     4     5     1
 -0.1752073887     1     4     5     2
 -0.0000000004     1     4     5     3
 0.0000000008     1     4     5     5
 0.0201752824     1     4     5    10
 -0.0204233908     1     4     5    11
 0.0000000007     1     4     6     6
 0.0081376949     1     4     6     8
 -0.0141840997     1     4     6     9
 -0.0000000004     1     4     6    12
 0.0000000008     1     4     6    13
 0.0000000007     1     4     7     7
 -0.0141840997     1     4     7     8
 -0.0081376949     1     4     7     9
 0.0000000008     1     4     7    12
 0.0000000004     1     4     7    13
 0.0081780683     1     4     8     6
 -0.0142544712     1     4     8     7
 0.0000000008     1     4     8     8
 -0.0237970081     1     4     8    12
 0.0017872706     1     4     8    13
 -0.0142544712     1     4     9     6
 -0.0081780683     1     4     9     7
 0.0000000008     1     4     9     9
 -0.0017872706     1     4     9    12
 -0.0237970081     1     4     9    13
 -0.0554390419     1     4    10     1
 -0.0075301414     1     4    10     3
 0.0162805351     1     4    10     5
 0.0000000009     1     4    10    10
 -0.0000000008     1     4    10    11
 -0.1078983401     1     4    11     1
 0.0064940649     1     4    11     3
 -0.0129254161     1     4    11     5
 -0.0000000007     1     4    11    10
 0.0000000007     1     4    11    11
 -0.0000000003     1     4    12     6
 0.0000000005     1     4    12     7
 -0.0165113212     1     4    12     8
 -0.0012400802     1     4    12     9
 0.0000000009     1     4    12    12
 0.0000000005     1     4    13     6
 0.0000000003     1     4    13     7
 0.0012400802     1     4    13     8
 -0.0165113212     1     4    13     9
 0.0000000009     1     4    13    13
 0.0000000003     1     5     2     1
 -0.0071868531     1     5     2     2
 0.0000843903     1     5     2     4
 -0.0002959635     1     5     2    10
 0.0003128449     1     5     2    11
 0.0408534051     1     5     3     1
 -0.0088177025     1     5     3     3
 -0.0000000002     1     5     3    10
 0.0000000004     1     5     3    11
 0.0000000148     1     5     4     1
 -0.1751258922     1     5     4     2
 -0.0000000004     1     5     4     3
 0.0025025015     1     5     4     4
 0.0034054531     1     5     4    10
 -0.0070169178     1     5     4    11
 -0.6214230565     1     5     5     1
 0.0215730793     1     5     5     3
 -0.0000000008     1     5     5     4
 -0.0000000002     1     5     5    10
 -0.0000000001     1     5     5    11
 -0.0075054502     1     5     6     6
 -0.0000000001     1     5     6     8
 0.0021161339     1     5     6    12
 -0.0044268979     1     5     6    13
 -0.0075054502     1     5     7     7
 0.0000000001     1     5     7     9
 -0.0044268979     1     5     7    12
 -0.0021161339     1     5     7    13
 -0.0000000001     1     5     8     6
 -0.0067981734     1     5     8     8
 0.0000000002     1     5     8    12
 0.0000000001     1     5     9     7
 -0.0067981734     1     5     9     9
 0.0000000002     1     5     9    13
 -0.0000000200     1     5    10     1
 0.2364946296     1     5    10     2
 0.0000000007     1     5    10     3
 -0.0162805351     1     5    10     4
 -0.0158299024     1     5    10    10
 0.0047409099     1     5    10    11
 0.0000000158     1     5    11     1
 -0.1857489027     1     5    11     2
 -0.0000000006     1     5    11     3
 0.0129254161     1     5    11     4
 0.0117190047     1     5    11    10
 0.0009051070     1     5    11    11
 0.0018129162     1     5    12     6
 -0.0037925741     1     5    12     7
 0.0000000001     1     5    12     8
 -0.0078886681     1     5    12    12
 -0.0037925741     1     5    13     6
 -0.0018129162     1     5    13     7
 0.0000000001     1     5    13     9
 -0.0078886681     1     5    13    13
 -0.0000667848     1     6     2     8
 0.0001164067     1     6     2     9
 -0.0000000001     1     6     3     8
 0.0000000001     1     6     3     9
 0.0037437861     1     6     3    12
 -0.0078319046     1     6     3    13
 -0.0001876797     1     6     4     8
 0.0003271279     1     6     4     9
 -0.0000000001     1     6     4    12
 0.0000000002     1     6     4    13
 0.0002567762     1     6     5    12
 -0.0005371691     1     6     5    13
 -0.5749166521     1     6     6     1
 0.0164471912     1     6     6     3
 -0.0000000007     1     6     6     4
 0.0075054502     1     6     6     5
 -0.0000000001     1     6     6    10
 -0.0000000003     1     6     6    11
 -0.0000000110     1     6     8     1
 0.1301087016     1     6     8     2
 0.0000000003     1     6     8     3
 -0.0081780683     1     6     8     4
 0.0000000001     1     6     8     5
 -0.0049134838     1     6     8    10
 -0.0003594672     1     6     8    11
 0.0000000192     1     6     9     1
 -0.2267810273     1     6     9     2
 -0.0000000006     1     6     9     3
 0.0142544712     1     6     9     4
 0.0085642612     1     6     9    10
 0.0006265557     1     6     9    11
 -0.0000169570     1     6    10     8
 0.0000295562     1     6    10     9
 0.0000000001     1     6    10    13
 -0.0000673465     1     6    11     8
 0.0001173859     1     6    11     9
 0.0840293738     1     6    12     1
 -0.0057157987     1     6    12     3
 0.0000000003     1     6    12     4
 -0.0018129162     1     6    12     5
 0.0000000001     1     6    12    10
 0.0000000001     1     6    12    11
 -0.1757872966     1     6    13     1
 0.0119573044     1     6    13     3
 -0.0000000005     1     6    13     4
 0.0037925741     1     6    13     5
 -0.0000000003     1     6    13    10
 -0.0000000002     1     6    13    11
 0.0001164067     1     7     2     8
 0.0000667848     1     7     2     9
 0.0000000001     1     7     3     8
 0.0000000001     1     7     3     9
 -0.0078319046     1     7     3    12
 -0.0037437861     1     7     3    13
 0.0003271279     1     7     4     8
 0.0001876797     1     7     4     9
 0.0000000002     1     7     4    12
 0.0000000001     1     7     4    13
 -0.0005371691     1     7     5    12
 -0.0002567762     1     7     5    13
 -0.5749166521     1     7     7     1
 0.0164471912     1     7     7     3
 -0.0000000007     1     7     7     4
 0.0075054502     1     7     7     5
 -0.0000000001     1     7     7    10
 -0.0000000003     1     7     7    11
 0.0000000192     1     7     8     1
 -0.2267810273     1     7     8     2
 -0.0000000006     1     7     8     3
 0.0142544712     1     7     8     4
 0.0085642612     1     7     8    10
 0.0006265557     1     7     8    11
 0.0000000110     1     7     9     1
 -0.1301087016     1     7     9     2
 -0.0000000003     1     7     9     3
 0.0081780683     1     7     9     4
 -0.0000000001     1     7     9     5
 0.0049134838     1     7     9    10
 0.0003594672     1     7     9    11
 0.0000295562     1     7    10     8
 0.0000169570     1     7    10     9
 0.0000000001     1     7    10    12
 0.0001173859     1     7    11     8
 0.0000673465     1     7    11     9
 -0.1757872966     1     7    12     1
 0.0119573044     1     7    12     3
 -0.0000000005     1     7    12     4
 0.0037925741     1     7    12     5
 -0.0000000003     1     7    12    10
 -0.0000000002     1     7    12    11
 -0.0840293738     1     7    13     1
 0.0057157987     1     7    13     3
 -0.0000000003     1     7    13     4
 0.0018129162     1     7    13     5
 -0.0000000001     1     7    13    10
 -0.0000000001     1     7    13    11
 0.0000667848     1     8     2     6
 -0.0001164067     1     8     2     7
 -0.0001512126     1     8     2    12
 0.0000113568     1     8     2    13
 0.0000000001     1     8     3     6
 -0.0000000001     1     8     3     7
 0.0000000002     1     8     3    12
 0.0001876797     1     8     4     6
 -0.0003271279     1     8     4     7
 -0.0068117984     1     8     4    12
 0.0005115991     1     8     4    13
 0.0000000001     1     8     5    12
 -0.0000000110     1     8     6     1
 0.1301715936     1     8     6     2
 0.0000000004     1     8     6     3
 -0.0081376949     1     8     6     4
 0.0000000001     1     8     6     5
 -0.0049885816     1     8     6    10
 -0.0002589152     1     8     6    11
 0.0000000192     1     8     7     1
 -0.2268906488     1     8     7     2
 -0.0000000007     1     8     7     3
 0.0141840997     1     8     7     4
 0.0086951576     1     8     7    10
 0.0004512923     1     8     7    11
 -0.5911661707     1     8     8     1
 0.0172613782     1     8     8     3
 -0.0000000008     1     8     8     4
 0.0067981734     1     8     8     5
 -0.0000000002     1     8     8    10
 -0.0000000002     1     8     8    11
 0.0000169570     1     8    10     6
 -0.0000295562     1     8    10     7
 -0.0024300760     1     8    10    12
 0.0001825105     1     8    10    13
 0.0000673465     1     8    11     6
 -0.0001173859     1     8    11     7
 0.0005561783     1     8    11    12
 -0.0000417717     1     8    11    13
 0.0000000178     1     8    12     1
 -0.2105561851     1     8    12     2
 -0.0000000007     1     8    12     3
 0.0165113212     1     8    12     4
 -0.0000000001     1     8    12     5
 0.0083578667     1     8    12    10
 0.0045524531     1     8    12    11
 -0.0000000013     1     8    13     1
 0.0158137898     1     8    13     2
 -0.0012400802     1     8    13     4
 -0.0006277163     1     8    13    10
 -0.0003419113     1     8    13    11
 -0.0001164067     1     9     2     6
 -0.0000667848     1     9     2     7
 -0.0000113568     1     9     2    12
 -0.0001512126     1     9     2    13
 -0.0000000001     1     9     3     6
 -0.0000000001     1     9     3     7
 0.0000000002     1     9     3    13
 -0.0003271279     1     9     4     6
 -0.0001876797     1     9     4     7
 -0.0005115991     1     9     4    12
 -0.0068117984     1     9     4    13
 0.0000000001     1     9     5    13
 0.0000000192     1     9     6     1
 -0.2268906488     1     9     6     2
 -0.0000000007     1     9     6     3
 0.0141840997     1     9     6     4
 0.0086951576     1     9     6    10
 0.0004512923     1     9     6    11
 0.0000000110     1     9     7     1
 -0.1301715936     1     9     7     2
 -0.0000000004     1     9     7     3
 0.0081376949     1     9     7     4
 -0.0000000001     1     9     7     5
 0.0049885816     1     9     7    10
 0.0002589152     1     9     7    11
 -0.5911661707     1     9     9     1
 0.0172613782     1     9     9     3
 -0.0000000008     1     9     9     4
 0.0067981734     1     9     9     5
 -0.0000000002     1     9     9    10
 -0.0000000002     1     9     9    11
 -0.0000295562     1     9    10     6
 -0.0000169570     1     9    10     7
 -0.0001825105     1     9    10    12
 -0.0024300760     1     9    10    13
 -0.0001173859     1     9    11     6
 -0.0000673465     1     9    11     7
 0.0000417717     1     9    11    12
 0.0005561783     1     9    11    13
 0.0000000013     1     9    12     1
 -0.0158137898     1     9    12     2
 0.0012400802     1     9    12     4
 0.0006277163     1     9    12    10
 0.0003419113     1     9    12    11
 0.0000000178     1     9    13     1
 -0.2105561851     1     9    13     2
 -0.0000000007     1     9    13     3
 0.0165113212     1     9    13     4
 -0.0000000001     1     9    13     5
 0.0083578667     1     9    13    10
 0.0045524531     1     9    13    11
 -0.0065789409     1    10     2     1
 -0.0000000003     1    10     2     2
 -0.0000815052     1    10     2     3
 0.0002959635     1    10     2     5
 0.0000000107     1    10     3     1
 -0.1258700052     1    10     3     2
 -0.0000000004     1    10     3     3
 0.0006095794     1    10     3     4
 0.0000000002     1    10     3     5
 0.0052486441     1    10     3    11
 -0.0554390419     1    10     4     1
 -0.0070424543     1    10     4     3
 0.0000000002     1    10     4     4
 -0.0034054531     1    10     4     5
 -0.0000000001     1    10     4    11
 -0.0000000200     1    10     5     1
 0.2367830877     1    10     5     2
 0.0000000009     1    10     5     3
 -0.0201752824     1    10     5     4
 0.0000000002     1    10     5     5
 -0.0071250067     1    10     5    11
 0.0000000001     1    10     6     6
 0.0049885816     1    10     6     8
 -0.0086951576     1    10     6     9
 -0.0000000001     1    10     6    12
 0.0000000004     1    10     6    13
 0.0000000001     1    10     7     7
 -0.0086951576     1    10     7     8
 -0.0049885816     1    10     7     9
 0.0000000004     1    10     7    12
 0.0000000001     1    10     7    13
 0.0049134838     1    10     8     6
 -0.0085642612     1    10     8     7
 0.0000000002     1    10     8     8
 -0.0108955036     1    10     8    12
 0.0008183051     1    10     8    13
 -0.0085642612     1    10     9     6
 -0.0049134838     1    10     9     7
 0.0000000002     1    10     9     9
 -0.0008183051     1    10     9    12
 -0.0108955036     1    10     9    13
 -0.6347741233     1    10    10     1
 0.0144988792     1    10    10     3
 -0.0000000009     1    10    10     4
 0.0158299024     1    10    10     5
 -0.0000000006     1    10    10    11
 0.1986745608     1    10    11     1
 -0.0126444531     1    10    11     3
 0.0000000007     1    10    11     4
 -0.0117190047     1    10    11     5
 0.0000000006     1    10    11    11
 -0.0000000001     1    10    12     6
 0.0000000003     1    10    12     7
 -0.0083578667     1    10    12     8
 -0.0006277163     1    10    12     9
 0.0000000002     1    10    12    12
 0.0000000003     1    10    13     6
 0.0000000001     1    10    13     7
 0.0006277163     1    10    13     8
 -0.0083578667     1    10    13     9
 0.0000000002     1    10    13    13
 0.0070893543     1    11     2     1
 0.0000000003     1    11     2     2
 0.0000724033     1    11     2     3
 -0.0003128449     1    11     2     5
 0.0000000007     1    11     3     1
 -0.0089310059     1    11     3     2
 0.0000000005     1    11     3     3
 0.0004817584     1    11     3     4
 -0.0000000004     1    11     3     5
 -0.0052486441     1    11     3    10
 -0.1078983401     1    11     4     1
 0.0071325316     1    11     4     3
 -0.0000000002     1    11     4     4
 0.0070169178     1    11     4     5
 0.0000000001     1    11     4    10
 0.0000000158     1    11     5     1
 -0.1860651087     1    11     5     2
 -0.0000000010     1    11     5     3
 0.0204233908     1    11     5     4
 0.0000000001     1    11     5     5
 0.0071250067     1    11     5    10
 0.0000000003     1    11     6     6
 0.0002589152     1    11     6     8
 -0.0004512923     1    11     6     9
 -0.0000000001     1    11     6    12
 0.0000000002     1    11     6    13
 0.0000000003     1    11     7     7
 -0.0004512923     1    11     7     8
 -0.0002589152     1    11     7     9
 0.0000000002     1    11     7    12
 0.0000000001     1    11     7    13
 0.0003594672     1    11     8     6
 -0.0006265557     1    11     8     7
 0.0000000002     1    11     8     8
 -0.0040338460     1    11     8    12
 0.0003029614     1    11     8    13
 -0.0006265557     1    11     9     6
 -0.0003594672     1    11     9     7
 0.0000000002     1    11     9     9
 -0.0003029614     1    11     9    12
 -0.0040338460     1    11     9    13
 0.1986745608     1    11    10     1
 -0.0180074653     1    11    10     3
 0.0000000008     1    11    10     4
 -0.0047409099     1    11    10     5
 0.0000000006     1    11    10    10
 -0.5229334402     1    11    11     1
 0.0000000001     1    11    11     2
 0.0173270972     1    11    11     3
 -0.0000000007     1    11    11     4
 -0.0009051070     1    11    11     5
 -0.0000000006     1    11    11    10
 -0.0000000001     1    11    12     6
 0.0000000002     1    11    12     7
 -0.0045524531     1    11    12     8
 -0.0003419113     1    11    12     9
 0.0000000004     1    11    12    12
 0.0000000002     1    11    13     6
 0.0000000001     1    11    13     7
 0.0003419113     1    11    13     8
 -0.0045524531     1    11    13     9
 0.0000000004     1    11    13    13
 0.0001512126     1    12     2     8
 0.0000113568     1    12     2     9
 -0.0037437861     1    12     3     6
 0.0078319046     1    12     3     7
 -0.0000000002     1    12     3     8
 0.0000000001     1    12     4     6
 -0.0000000002     1    12     4     7
 0.0068117984     1    12     4     8
 0.0005115991     1    12     4     9
 -0.0002567762     1    12     5     6
 0.0005371691     1    12     5     7
 -0.0000000001     1    12     5     8
 0.0840293738     1    12     6     1
 -0.0096503038     1    12     6     3
 0.0000000004     1    12     6     4
 -0.0021161339     1    12     6     5
 0.0000000001     1    12     6    10
 0.0000000001     1    12     6    11
 -0.1757872966     1    12     7     1
 0.0201881882     1    12     7     3
 -0.0000000008     1    12     7     4
 0.0044268979     1    12     7     5
 -0.0000000004     1    12     7    10
 -0.0000000002     1    12     7    11
 0.0000000178     1    12     8     1
 -0.2104053098     1    12     8     2
 -0.0000000009     1    12     8     3
 0.0237970081     1    12     8     4
 -0.0000000002     1    12     8     5
 0.0108955036     1    12     8    10
 0.0040338460     1    12     8    11
 0.0000000013     1    12     9     1
 -0.0158024584     1    12     9     2
 0.0017872706     1    12     9     4
 0.0008183051     1    12     9    10
 0.0003029614     1    12     9    11
 -0.0000000001     1    12    10     7
 0.0024300760     1    12    10     8
 0.0001825105     1    12    10     9
 -0.0005561783     1    12    11     8
 -0.0000417717     1    12    11     9
 -0.5803193569     1    12    12     1
 0.0000000001     1    12    12     2
 0.0188459272     1    12    12     3
 -0.0000000009     1    12    12     4
 0.0078886681     1    12    12     5
 -0.0000000002     1    12    12    10
 -0.0000000004     1    12    12    11
 -0.0000113568     1    13     2     8
 0.0001512126     1    13     2     9
 0.0078319046     1    13     3     6
 0.0037437861     1    13     3     7
 -0.0000000002     1    13     3     9
 -0.0000000002     1    13     4     6
 -0.0000000001     1    13     4     7
 -0.0005115991     1    13     4     8
 0.0068117984     1    13     4     9
 0.0005371691     1    13     5     6
 0.0002567762     1    13     5     7
 -0.0000000001     1    13     5     9
 -0.1757872966     1    13     6     1
 0.0201881882     1    13     6     3
 -0.0000000008     1    13     6     4
 0.0044268979     1    13     6     5
 -0.0000000004     1    13     6    10
 -0.0000000002     1    13     6    11
 -0.0840293738     1    13     7     1
 0.0096503038     1    13     7     3
 -0.0000000004     1    13     7     4
 0.0021161339     1    13     7     5
 -0.0000000001     1    13     7    10
 -0.0000000001     1    13     7    11
 -0.0000000013     1    13     8     1
 0.0158024584     1    13     8     2
 -0.0017872706     1    13     8     4
 -0.0008183051     1    13     8    10
 -0.0003029614     1    13     8    11
 0.0000000178     1    13     9     1
 -0.2104053098     1    13     9     2
 -0.0000000009     1    13     9     3
 0.0237970081     1    13     9     4
 -0.0000000002     1    13     9     5
 0.0108955036     1    13     9    10
 0.0040338460     1    13     9    11
 -0.0000000001     1    13    10     6
 -0.0001825105     1    13    10     8
 0.0024300760     1    13    10     9
 0.0000417717     1    13    11     8
 -0.0005561783     1    13    11     9
 -0.5803193569     1    13    13     1
 0.0000000001     1    13    13     2
 0.0188459272     1    13    13     3
 -0.0000000009     1    13    13     4
 0.0078886681     1    13    13     5
 -0.0000000002     1    13    13    10
 -0.0000000004     1    13    13    11
 -0.3224132833     2     1     1     2
 -0.0000000001     2     1     1     3
 0.0018482069     2     1     1     4
 0.0000000003     2     1     1     5
 -0.0065789409     2     1     1    10
 0.0070893543     2     1     1    11
 -0.0018063254     2     1     3     2
 0.2672330515     2     1     3     4
 0.1257873141     2     1     3    10
 0.0090019833     2     1     3    11
 0.2672075579     2     1     4     3
 0.1752073887     2     1     4     5
 0.0071868531     2     1     5     2
 0.1751258922     2     1     5     4
 -0.2364946296     2     1     5    10
 0.1857489027     2     1     5    11
 -0.1301087016     2     1     6     8
 0.2267810273     2     1     6     9
 0.2267810273     2     1     7     8
 0.1301087016     2     1     7     9
 -0.1301715936     2     1     8     6
 0.2268906488     2     1     8     7
 0.2105561851     2     1     8    12
 -0.0158137898     2     1     8    13
 0.2268906488     2     1     9     6
 0.1301715936     2     1     9     7
 0.0158137898     2     1     9    12
 0.2105561851     2     1     9    13
 0.0000000003     2     1    10     2
 0.1258700052     2     1    10     3
 -0.2367830877     2     1    10     5
 -0.0000000003     2     1    11     2
 0.0089310059     2     1    11     3
 0.1860651087     2     1    11     5
 -0.0000000001     2     1    11    11
 0.2104053098     2     1    12     8
 0.0158024584     2     1    12     9
 -0.0000000001     2     1    12    12
 -0.0158024584     2     1    13     8
 0.2104053098     2     1    13     9
 -0.0000000001     2     1    13    13
 0.3224132833     2     2     1     1
 0.0018063254     2     2     1     3
 -0.0071868531     2     2     1     5
 -0.0000000003     2     2     1    10
 0.0000000003     2     2     1    11
 0.0018063254     2     2     3     1
 0.6303975821     2     2     3     3
 0.0000000226     2     2     3     4
 -0.0409153609     2     2     3     5
 0.0000000106     2     2     3    10
 0.0000000007     2     2     3    11
 0.0000000226     2     2     4     3
 0.6089857023     2     2     4     4
 0.0000000148     2     2     4     5
 0.0554922560     2     2     4    10
 0.1078151640     2     2     4    11
 -0.0071868531     2     2     5     1
 -0.0409153609     2     2     5     3
 0.0000000148     2     2     5     4
 0.6217455723     2     2     5     5
 -0.0000000200     2     2     5    10
 0.0000000157     2     2     5    11
 0.5750598560     2     2     6     6
 -0.0000000110     2     2     6     8
 0.0000000192     2     2     6     9
 -0.0840984199     2     2     6    12
 0.1759317391     2     2     6    13
 0.5750598560     2     2     7     7
 0.0000000192     2     2     7     8
 0.0000000110     2     2     7     9
 0.1759317391     2     2     7    12
 0.0840984199     2     2     7    13
 -0.0000000110     2     2     8     6
 0.0000000192     2     2     8     7
 0.5910515554     2     2     8     8
 0.0000000178     2     2     8    12
 -0.0000000013     2     2     8    13
 0.0000000192     2     2     9     6
 0.0000000110     2     2     9     7
 0.5910515554     2     2     9     9