&FCI NORB= 13,NELEC= 14,MS2=0,
 ORBSYM=1,1,1,1,1,1,1,1,1,1,1,1,1
 ISYM=1,
&END
 0.2686649264     1     1     2     2
 0.0000000074     1     1     2     3
 -0.0007952535     1     1     2     4
 -0.0000000521     1     1     2     5
 0.0047302189     1     1     2    10
 -0.0046164483     1     1     2    13
 0.0000000074     1     1     3     2
 0.5889995987     1     1     3     3
 -0.0000067260     1     1     3     4
 -0.0200395693     1     1     3     5
 -0.0000017046     1     1     3    10
 -0.0000010981     1     1     3    13
 -0.0007952535     1     1     4     2
 -0.0000067260     1     1     4     3
 0.5929939120     1     1     4     4
 -0.0000026268     1     1     4     5
 0.0428755612     1     1     4    10
 0.1084195840     1     1     4    13
 -0.0000000521     1     1     5     2
 -0.0200395693     1     1     5     3
 -0.0000026268     1     1     5     4
 0.5883739765     1     1     5     5
 0.0000060361     1     1     5    10
 -0.0000036306     1     1     5    13
 0.5510262852     1     1     6     6
 -0.0000046020     1     1     6     8
 0.0000039807     1     1     6     9
 -0.1336810498     1     1     6    11
 0.1348446149     1     1     6    12
 0.5510262852     1     1     7     7
 -0.0000039807     1     1     7     8
 -0.0000046020     1     1     7     9
 0.1348446149     1     1     7    11
 0.1336810498     1     1     7    12
 -0.0000046020     1     1     8     6
 -0.0000039807     1     1     8     7
 0.5704743988     1     1     8     8
 0.0000003162     1     1     8    11
 -0.0000046494     1     1     8    12
 0.0000039807     1     1     9     6
 -0.0000046020     1     1     9     7
 0.5704743988     1     1     9     9
 -0.0000046494     1     1     9    11
 -0.0000003162     1     1     9    12
 0.0047302189     1     1    10     2
 -0.0000017046     1     1    10     3
 0.0428755612     1     1    10     4
 0.0000060361     1     1    10     5
 0.6127488654     1     1    10    10
 -0.1770023080     1     1    10    13
 -0.1336810498     1     1    11     6
 0.1348446149     1     1    11     7
 0.0000003162     1     1    11     8
 -0.0000046494     1     1    11     9
 0.5597764339     1     1    11    11
 0.1348446149     1     1    12     6
 0.1336810498     1     1    12     7
 -0.0000046494     1     1    12     8
 -0.0000003162     1     1    12     9
 0.5597764339     1     1    12    12
 -0.0046164483     1     1    13     2
 -0.0000010981     1     1    13     3
 0.1084195840     1     1    13     4
 -0.0000036306     1     1    13     5
 -0.1770023080     1     1    13    10
 0.4968941237     1     1    13    13
 -0.2686649264     1     2     2     1
 -0.0006803906     1     2     2     3
 -0.0000000086     1     2     2     4
 0.0048392763     1     2     2     5
 0.0000000509     1     2     2    10
 -0.0000000497     1     2     2    13
 -0.0000000074     1     2     3     1
 -0.0000000073     1     2     3     3
 0.3127301528     1     2     3     4
 -0.0000000005     1     2     3     5
 0.0792458762     1     2     3    10
 0.0508718983     1     2     3    13
 0.0007952535     1     2     4     1
 0.3127452792     1     2     4     3
 0.0000000066     1     2     4     4
 0.1221253928     1     2     4     5
 0.0000000009     1     2     4    10
 -0.0000000027     1     2     4    13
 0.0000000521     1     2     5     1
 -0.0000000005     1     2     5     3
 0.1221531842     1     2     5     4
 -0.0000000030     1     2     5     5
 -0.2807303485     1     2     5    10
 0.1687274017     1     2     5    13
 -0.0000000029     1     2     6     6
 0.2139963652     1     2     6     8
 -0.1851106919     1     2     6     9
 0.0000000026     1     2     6    11
 -0.0000000027     1     2     6    12
 -0.0000000029     1     2     7     7
 0.1851106919     1     2     7     8
 0.2139963651     1     2     7     9
 -0.0000000027     1     2     7    11
 -0.0000000026     1     2     7    12
 0.2139467216     1     2     8     6
 0.1850677494     1     2     8     7
 0.0000000025     1     2     8     8
 -0.0146966969     1     2     8    11
 0.2160603529     1     2     8    12
 -0.1850677493     1     2     9     6
 0.2139467215     1     2     9     7
 0.0000000025     1     2     9     9
 0.2160603529     1     2     9    11
 0.0146966969     1     2     9    12
 -0.0047302189     1     2    10     1
 0.0792180279     1     2    10     3
 0.0000000009     1     2    10     4
 -0.2805620949     1     2    10     5
 0.0000000027     1     2    10    10
 -0.0000000003     1     2    10    13
 0.0000000026     1     2    11     6
 -0.0000000027     1     2    11     7
 -0.0147022752     1     2    11     8
 0.2161423613     1     2    11     9
 -0.0000000084     1     2    11    11
 -0.0000000027     1     2    12     6
 -0.0000000026     1     2    12     7
 0.2161423613     1     2    12     8
 0.0147022752     1     2    12     9
 -0.0000000084     1     2    12    12
 0.0046164483     1     2    13     1
 0.0508851465     1     2    13     3
 -0.0000000027     1     2    13     4
 0.1685619603     1     2    13     5
 -0.0000000003     1     2    13    10
 -0.0000000111     1     2    13    13
 -0.0000000074     1     3     2     1
 0.0006803906     1     3     2     2
 -0.0000114822     1     3     2     4
 0.0000271505     1     3     2    10
 -0.0000159733     1     3     2    13
 -0.5889995987     1     3     3     1
 0.0000000073     1     3     3     2
 -0.0000000072     1     3     3     4
 0.0049147121     1     3     3     5
 0.0000000568     1     3     3    10
 -0.0000000591     1     3     3    13
 0.0000067260     1     3     4     1
 -0.3127452792     1     3     4     2
 -0.0011283743     1     3     4     4
 0.0000000568     1     3     4     5
 0.0051409593     1     3     4    10
 -0.0046681810     1     3     4    13
 0.0200395693     1     3     5     1
 0.0000000005     1     3     5     2
 0.0000000556     1     3     5     4
 -0.0203151220     1     3     5     5
 -0.0000002199     1     3     5    10
 0.0000002226     1     3     5    13
 -0.0170590034     1     3     6     6
 0.0000001482     1     3     6     8
 -0.0000001282     1     3     6     9
 0.0154945457     1     3     6    11
 -0.0156294108     1     3     6    12
 -0.0170590034     1     3     7     7
 0.0000001282     1     3     7     8
 0.0000001482     1     3     7     9
 -0.0156294108     1     3     7    11
 -0.0154945457     1     3     7    12
 0.0000001308     1     3     8     6
 0.0000001131     1     3     8     7
 -0.0178083342     1     3     8     8
 -0.0000000160     1     3     8    11
 0.0000002357     1     3     8    12
 -0.0000001131     1     3     9     6
 0.0000001308     1     3     9     7
 -0.0178083342     1     3     9     9
 0.0000002357     1     3     9    11
 0.0000000160     1     3     9    12
 0.0000017046     1     3    10     1
 -0.0792180279     1     3    10     2
 0.0044712688     1     3    10     4
 -0.0000001828     1     3    10     5
 -0.0181398892     1     3    10    10
 0.0185385187     1     3    10    13
 0.0095120422     1     3    11     6
 -0.0095948354     1     3    11     7
 -0.0000000114     1     3    11     8
 0.0000001676     1     3    11     9
 -0.0192261861     1     3    11    11
 -0.0095948354     1     3    12     6
 -0.0095120422     1     3    12     7
 0.0000001676     1     3    12     8
 0.0000000114     1     3    12     9
 -0.0192261861     1     3    12    12
 0.0000010981     1     3    13     1
 -0.0508851465     1     3    13     2
 -0.0033251348     1     3    13     4
 0.0000001341     1     3    13     5
 0.0131608610     1     3    13    10
 -0.0147022093     1     3    13    13
 0.0007952535     1     4     2     1
 0.0000000086     1     4     2     2
 0.0000114822     1     4     2     3
 -0.0000287966     1     4     2     5
 0.0000067260     1     4     3     1
 -0.3127301528     1     4     3     2
 0.0000000072     1     4     3     3
 0.0000000014     1     4     3     5
 0.0006209712     1     4     3    10
 -0.0012746795     1     4     3    13
 -0.5929939120     1     4     4     1
 -0.0000000066     1     4     4     2
 0.0011283743     1     4     4     3
 -0.0013210174     1     4     4     5
 -0.0000000178     1     4     4    10
 0.0000000260     1     4     4    13
 0.0000026268     1     4     5     1
 -0.1221531842     1     4     5     2
 -0.0000000556     1     4     5     3
 0.0000002096     1     4     5     5
 0.0198003643     1     4     5    10
 -0.0185892359     1     4     5    13
 0.0000001892     1     4     6     6
 -0.0130401212     1     4     6     8
 0.0112799386     1     4     6     9
 -0.0000001639     1     4     6    11
 0.0000001653     1     4     6    12
 0.0000001892     1     4     7     7
 -0.0112799386     1     4     7     8
 -0.0130401212     1     4     7     9
 0.0000001653     1     4     7    11
 0.0000001639     1     4     7    12
 -0.0127081383     1     4     8     6
 -0.0109927674     1     4     8     7
 0.0000002126     1     4     8     8
 0.0015959356     1     4     8    11
 -0.0234623079     1     4     8    12
 0.0109927675     1     4     9     6
 -0.0127081383     1     4     9     7
 0.0000002126     1     4     9     9
 -0.0234623079     1     4     9    11
 -0.0015959356     1     4     9    12
 -0.0428755612     1     4    10     1
 -0.0000000009     1     4    10     2
 -0.0044712688     1     4    10     3
 0.0178030263     1     4    10     5
 0.0000002378     1     4    10    10
 -0.0000002107     1     4    10    13
 -0.0000001122     1     4    11     6
 0.0000001132     1     4    11     7
 0.0011329712     1     4    11     8
 -0.0166561348     1     4    11     9
 0.0000002307     1     4    11    11
 0.0000001132     1     4    12     6
 0.0000001122     1     4    12     7
 -0.0166561348     1     4    12     8
 -0.0011329712     1     4    12     9
 0.0000002307     1     4    12    12
 -0.1084195840     1     4    13     1
 0.0000000027     1     4    13     2
 0.0033251348     1     4    13     3
 -0.0121691962     1     4    13     5
 -0.0000001606     1     4    13    10
 0.0000001450     1     4    13    13
 0.0000000521     1     5     2     1
 -0.0048392763     1     5     2     2
 0.0000287966     1     5     2     4
 -0.0001699692     1     5     2    10
 0.0001603002     1     5     2    13
 0.0200395693     1     5     3     1
 0.0000000005     1     5     3     2
 -0.0049147121     1     5     3     3
 -0.0000000014     1     5     3     4
 -0.0000000335     1     5     3    10
 0.0000000837     1     5     3    13
 0.0000026268     1     5     4     1
 -0.1221253928     1     5     4     2
 -0.0000000568     1     5     4     3
 0.0013210174     1     5     4     4
 0.0015696218     1     5     4    10
 -0.0059200239     1     5     4    13
 -0.5883739765     1     5     5     1
 0.0000000030     1     5     5     2
 0.0203151220     1     5     5     3
 -0.0000002096     1     5     5     4
 -0.0000000166     1     5     5    10
 -0.0000000510     1     5     5    13
 -0.0049871451     1     5     6     6
 0.0000000009     1     5     6     8
 -0.0000000008     1     5     6     9
 0.0018172545     1     5     6    11
 -0.0018330721     1     5     6    12
 -0.0049871451     1     5     7     7
 0.0000000008     1     5     7     8
 0.0000000009     1     5     7     9
 -0.0018330721     1     5     7    11
 -0.0018172545     1     5     7    12
 0.0000000062     1     5     8     6
 0.0000000053     1     5     8     7
 -0.0046834492     1     5     8     8
 -0.0000000022     1     5     8    11
 0.0000000327     1     5     8    12
 -0.0000000053     1     5     9     6
 0.0000000062     1     5     9     7
 -0.0046834492     1     5     9     9
 0.0000000327     1     5     9    11
 0.0000000022     1     5     9    12
 -0.0000060361     1     5    10     1
 0.2805620949     1     5    10     2
 0.0000001828     1     5    10     3
 -0.0178030263     1     5    10     4
 -0.0114969880     1     5    10    10
 0.0003189518     1     5    10    13
 0.0019229492     1     5    11     6
 -0.0019396867     1     5    11     7
 -0.0000000017     1     5    11     8
 0.0000000251     1     5    11     9
 -0.0059392605     1     5    11    11
 -0.0019396867     1     5    12     6
 -0.0019229492     1     5    12     7
 0.0000000251     1     5    12     8
 0.0000000017     1     5    12     9
 -0.0059392605     1     5    12    12
 0.0000036306     1     5    13     1
 -0.1685619603     1     5    13     2
 -0.0000001341     1     5    13     3
 0.0121691962     1     5    13     4
 0.0069199998     1     5    13    10
 0.0044964164     1     5    13    13
 0.0000554780     1     6     2     8
 -0.0000479895     1     6     2     9
 0.0000000144     1     6     3     8
 -0.0000000125     1     6     3     9
 0.0056389125     1     6     3    11
 -0.0056879938     1     6     3    12
 -0.0000910553     1     6     4     8
 0.0000787645     1     6     4     9
 -0.0000000485     1     6     4    11
 0.0000000489     1     6     4    12
 -0.0000000056     1     6     5     8
 0.0000000049     1     6     5     9
 -0.0001655159     1     6     5    11
 0.0001669566     1     6     5    12
 -0.5510262852     1     6     6     1
 0.0000000029     1     6     6     2
 0.0170590034     1     6     6     3
 -0.0000001892     1     6     6     4
 0.0049871451     1     6     6     5
 -0.0000000178     1     6     6    10
 -0.0000000826     1     6     6    13
 0.0000046020     1     6     8     1
 -0.2139467216     1     6     8     2
 -0.0000001308     1     6     8     3
 0.0127081383     1     6     8     4
 -0.0000000062     1     6     8     5
 0.0051218368     1     6     8    10
 0.0023766068     1     6     8    13
 -0.0000039807     1     6     9     1
 0.1850677493     1     6     9     2
 0.0000001131     1     6     9     3
 -0.0109927675     1     6     9     4
 0.0000000053     1     6     9     5
 -0.0044304807     1     6     9    10
 -0.0020558074     1     6     9    13
 0.0000064304     1     6    10     8
 -0.0000055625     1     6    10     9
 -0.0000000131     1     6    10    11
 0.0000000133     1     6    10    12
 0.1336810498     1     6    11     1
 -0.0000000026     1     6    11     2
 -0.0095120422     1     6    11     3
 0.0000001122     1     6    11     4
 -0.0019229492     1     6    11     5
 0.0000000343     1     6    11    10
 0.0000000523     1     6    11    13
 -0.1348446149     1     6    12     1
 0.0000000027     1     6    12     2
 0.0095948354     1     6    12     3
 -0.0000001132     1     6    12     4
 0.0019396867     1     6    12     5
 -0.0000000345     1     6    12    10
 -0.0000000528     1     6    12    13
 0.0000643006     1     6    13     8
 -0.0000556212     1     6    13     9
 0.0000000057     1     6    13    11
 -0.0000000057     1     6    13    12
 0.0000479895     1     7     2     8
 0.0000554780     1     7     2     9
 0.0000000125     1     7     3     8
 0.0000000144     1     7     3     9
 -0.0056879938     1     7     3    11
 -0.0056389125     1     7     3    12
 -0.0000787645     1     7     4     8
 -0.0000910553     1     7     4     9
 0.0000000489     1     7     4    11
 0.0000000485     1     7     4    12
 -0.0000000049     1     7     5     8
 -0.0000000056     1     7     5     9
 0.0001669566     1     7     5    11
 0.0001655159     1     7     5    12
 -0.5510262852     1     7     7     1
 0.0000000029     1     7     7     2
 0.0170590034     1     7     7     3
 -0.0000001892     1     7     7     4
 0.0049871451     1     7     7     5
 -0.0000000178     1     7     7    10
 -0.0000000826     1     7     7    13
 0.0000039807     1     7     8     1
 -0.1850677494     1     7     8     2
 -0.0000001131     1     7     8     3
 0.0109927674     1     7     8     4
 -0.0000000053     1     7     8     5
 0.0044304807     1     7     8    10
 0.0020558074     1     7     8    13
 0.0000046020     1     7     9     1
 -0.2139467215     1     7     9     2
 -0.0000001308     1     7     9     3
 0.0127081383     1     7     9     4
 -0.0000000062     1     7     9     5
 0.0051218368     1     7     9    10
 0.0023766068     1     7     9    13
 0.0000055625     1     7    10     8
 0.0000064304     1     7    10     9
 0.0000000133     1     7    10    11
 0.0000000131     1     7    10    12
 -0.1348446149     1     7    11     1
 0.0000000027     1     7    11     2
 0.0095948354     1     7    11     3
 -0.0000001132     1     7    11     4
 0.0019396867     1     7    11     5
 -0.0000000345     1     7    11    10
 -0.0000000528     1     7    11    13
 -0.1336810498     1     7    12     1
 0.0000000026     1     7    12     2
 0.0095120422     1     7    12     3
 -0.0000001122     1     7    12     4
 0.0019229492     1     7    12     5
 -0.0000000343     1     7    12    10
 -0.0000000523     1     7    12    13
 0.0000556212     1     7    13     8
 0.0000643006     1     7    13     9
 -0.0000000057     1     7    13    11
 -0.0000000057     1     7    13    12
 -0.0000554780     1     8     2     6
 -0.0000479895     1     8     2     7
 0.0000056055     1     8     2    11
 -0.0000824082     1     8     2    12
 -0.0000000144     1     8     3     6
 -0.0000000125     1     8     3     7
 -0.0000000046     1     8     3    11
 0.0000000675     1     8     3    12
 0.0000910553     1     8     4     6
 0.0000787645     1     8     4     7
 0.0004397004     1     8     4    11
 -0.0064641605     1     8     4    12
 0.0000000056     1     8     5     6
 0.0000000049     1     8     5     7
 -0.0000000005     1     8     5    11
 0.0000000068     1     8     5    12
 0.0000046020     1     8     6     1
 -0.2139963652     1     8     6     2
 -0.0000001482     1     8     6     3
 0.0130401212     1     8     6     4
 -0.0000000009     1     8     6     5
 0.0053313556     1     8     6    10
 0.0023134758     1     8     6    13
 0.0000039807     1     8     7     1
 -0.1851106919     1     8     7     2
 -0.0000001282     1     8     7     3
 0.0112799386     1     8     7     4
 -0.0000000008     1     8     7     5
 0.0046117181     1     8     7    10
 0.0020011980     1     8     7    13
 -0.5704743988     1     8     8     1
 -0.0000000025     1     8     8     2
 0.0178083342     1     8     8     3
 -0.0000002126     1     8     8     4
 0.0046834492     1     8     8     5
 -0.0000000407     1     8     8    10
 -0.0000000753     1     8     8    13
 -0.0000064304     1     8    10     6
 -0.0000055625     1     8    10     7
 0.0001222654     1     8    10    11
 -0.0017974574     1     8    10    12
 -0.0000003162     1     8    11     1
 0.0147022752     1     8    11     2
 0.0000000114     1     8    11     3
 -0.0011329712     1     8    11     4
 0.0000000017     1     8    11     5
 -0.0003722694     1     8    11    10
 -0.0004706194     1     8    11    13
 0.0000046494     1     8    12     1
 -0.2161423613     1     8    12     2
 -0.0000001676     1     8    12     3
 0.0166561348     1     8    12     4
 -0.0000000251     1     8    12     5
 0.0054728386     1     8    12    10
 0.0069187108     1     8    12    13
 -0.0000643006     1     8    13     6
 -0.0000556212     1     8    13     7
 -0.0000437475     1     8    13    11
 0.0006431456     1     8    13    12
 0.0000479895     1     9     2     6
 -0.0000554780     1     9     2     7
 -0.0000824082     1     9     2    11
 -0.0000056055     1     9     2    12
 0.0000000125     1     9     3     6
 -0.0000000144     1     9     3     7
 0.0000000675     1     9     3    11
 0.0000000046     1     9     3    12
 -0.0000787645     1     9     4     6
 0.0000910553     1     9     4     7
 -0.0064641605     1     9     4    11
 -0.0004397004     1     9     4    12
 -0.0000000049     1     9     5     6
 0.0000000056     1     9     5     7
 0.0000000068     1     9     5    11
 0.0000000005     1     9     5    12
 -0.0000039807     1     9     6     1
 0.1851106919     1     9     6     2
 0.0000001282     1     9     6     3
 -0.0112799386     1     9     6     4
 0.0000000008     1     9     6     5
 -0.0046117181     1     9     6    10
 -0.0020011980     1     9     6    13
 0.0000046020     1     9     7     1
 -0.2139963651     1     9     7     2
 -0.0000001482     1     9     7     3
 0.0130401212     1     9     7     4
 -0.0000000009     1     9     7     5
 0.0053313556     1     9     7    10
 0.0023134758     1     9     7    13
 -0.5704743988     1     9     9     1
 -0.0000000025     1     9     9     2
 0.0178083342     1     9     9     3
 -0.0000002126     1     9     9     4
 0.0046834492     1     9     9     5
 -0.0000000407     1     9     9    10
 -0.0000000753     1     9     9    13
 0.0000055625     1     9    10     6
 -0.0000064304     1     9    10     7
 -0.0017974574     1     9    10    11
 -0.0001222654     1     9    10    12
 0.0000046494     1     9    11     1
 -0.2161423613     1     9    11     2
 -0.0000001676     1     9    11     3
 0.0166561348     1     9    11     4
 -0.0000000251     1     9    11     5
 0.0054728386     1     9    11    10
 0.0069187108     1     9    11    13
 0.0000003162     1     9    12     1
 -0.0147022752     1     9    12     2
 -0.0000000114     1     9    12     3
 0.0011329712     1     9    12     4
 -0.0000000017     1     9    12     5
 0.0003722694     1     9    12    10
 0.0004706194     1     9    12    13
 0.0000556212     1     9    13     6
 -0.0000643006     1     9    13     7
 0.0006431456     1     9    13    11
 0.0000437475     1     9    13    12
 -0.0047302189     1    10     2     1
 -0.0000000509     1    10     2     2
 -0.0000271505     1    10     2     3
 0.0001699692     1    10     2     5
 0.0000017046     1    10     3     1
 -0.0792458762     1    10     3     2
 -0.0000000568     1    10     3     3
 -0.0006209712     1    10     3     4
 0.0000000335     1    10     3     5
 0.0052316545     1    10     3    13
 -0.0428755612     1    10     4     1
 -0.0000000009     1    10     4     2
 -0.0051409593     1    10     4     3
 0.0000000178     1    10     4     4
 -0.0015696218     1    10     4     5
 -0.0000000471     1    10     4    13
 -0.0000060361     1    10     5     1
 0.2807303485     1    10     5     2
 0.0000002199     1    10     5     3
 -0.0198003643     1    10     5     4
 0.0000000166     1    10     5     5
 -0.0067779240     1    10     5    13
 0.0000000178     1    10     6     6
 -0.0053313556     1    10     6     8
 0.0046117181     1    10     6     9
 -0.0000000488     1    10     6    11
 0.0000000493     1    10     6    12
 0.0000000178     1    10     7     7
 -0.0046117181     1    10     7     8
 -0.0053313556     1    10     7     9
 0.0000000493     1    10     7    11
 0.0000000488     1    10     7    12
 -0.0051218368     1    10     8     6
 -0.0044304807     1    10     8     7
 0.0000000407     1    10     8     8
 0.0005006196     1    10     8    11
 -0.0073597522     1    10     8    12
 0.0044304807     1    10     9     6
 -0.0051218368     1    10     9     7
 0.0000000407     1    10     9     9
 -0.0073597522     1    10     9    11
 -0.0005006196     1    10     9    12
 -0.6127488654     1    10    10     1
 -0.0000000027     1    10    10     2
 0.0181398892     1    10    10     3
 -0.0000002378     1    10    10     4
 0.0114969880     1    10    10     5
 -0.0000001266     1    10    10    13
 -0.0000000343     1    10    11     6
 0.0000000345     1    10    11     7
 0.0003722694     1    10    11     8
 -0.0054728386     1    10    11     9
 0.0000000418     1    10    11    11
 0.0000000345     1    10    12     6
 0.0000000343     1    10    12     7
 -0.0054728386     1    10    12     8
 -0.0003722694     1    10    12     9
 0.0000000418     1    10    12    12
 0.1770023080     1    10    13     1
 0.0000000003     1    10    13     2
 -0.0131608610     1    10    13     3
 0.0000001606     1    10    13     4
 -0.0069199998     1    10    13     5
 0.0000001324     1    10    13    13
 -0.0000056055     1    11     2     8
 0.0000824082     1    11     2     9
 -0.0056389125     1    11     3     6
 0.0056879938     1    11     3     7
 0.0000000046     1    11     3     8
 -0.0000000675     1    11     3     9
 0.0000000485     1    11     4     6
 -0.0000000489     1    11     4     7
 -0.0004397004     1    11     4     8
 0.0064641605     1    11     4     9
 0.0001655159     1    11     5     6
 -0.0001669566     1    11     5     7
 0.0000000005     1    11     5     8
 -0.0000000068     1    11     5     9
 0.1336810498     1    11     6     1
 -0.0000000026     1    11     6     2
 -0.0154945457     1    11     6     3
 0.0000001639     1    11     6     4
 -0.0018172545     1    11     6     5
 0.0000000488     1    11     6    10
 0.0000000466     1    11     6    13
 -0.1348446149     1    11     7     1
 0.0000000027     1    11     7     2
 0.0156294108     1    11     7     3
 -0.0000001653     1    11     7     4
 0.0018330721     1    11     7     5
 -0.0000000493     1    11     7    10
 -0.0000000470     1    11     7    13
 -0.0000003162     1    11     8     1
 0.0146966969     1    11     8     2
 0.0000000160     1    11     8     3
 -0.0015959356     1    11     8     4
 0.0000000022     1    11     8     5
 -0.0005006196     1    11     8    10
 -0.0004326012     1    11     8    13
 0.0000046494     1    11     9     1
 -0.2160603529     1    11     9     2
 -0.0000002357     1    11     9     3
 0.0234623079     1    11     9     4
 -0.0000000327     1    11     9     5
 0.0073597522     1    11     9    10
 0.0063597945     1    11     9    13
 0.0000000131     1    11    10     6
 -0.0000000133     1    11    10     7
 -0.0001222654     1    11    10     8
 0.0017974574     1    11    10     9
 -0.5597764339     1    11    11     1
 0.0000000084     1    11    11     2
 0.0192261861     1    11    11     3
 -0.0000002307     1    11    11     4
 0.0059392605     1    11    11     5
 -0.0000000418     1    11    11    10
 -0.0000001248     1    11    11    13
 -0.0000000057     1    11    13     6
 0.0000000057     1    11    13     7
 0.0000437475     1    11    13     8
 -0.0006431456     1    11    13     9
 0.0000824082     1    12     2     8
 0.0000056055     1    12     2     9
 0.0056879938     1    12     3     6
 0.0056389125     1    12     3     7
 -0.0000000675     1    12     3     8
 -0.0000000046     1    12     3     9
 -0.0000000489     1    12     4     6
 -0.0000000485     1    12     4     7
 0.0064641605     1    12     4     8
 0.0004397004     1    12     4     9
 -0.0001669566     1    12     5     6
 -0.0001655159     1    12     5     7
 -0.0000000068     1    12     5     8
 -0.0000000005     1    12     5     9
 -0.1348446149     1    12     6     1
 0.0000000027     1    12     6     2
 0.0156294108     1    12     6     3
 -0.0000001653     1    12     6     4
 0.0018330721     1    12     6     5
 -0.0000000493     1    12     6    10
 -0.0000000470     1    12     6    13
 -0.1336810498     1    12     7     1
 0.0000000026     1    12     7     2
 0.0154945457     1    12     7     3
 -0.0000001639     1    12     7     4
 0.0018172545     1    12     7     5
 -0.0000000488     1    12     7    10
 -0.0000000466     1    12     7    13
 0.0000046494     1    12     8     1
 -0.2160603529     1    12     8     2
 -0.0000002357     1    12     8     3
 0.0234623079     1    12     8     4
 -0.0000000327     1    12     8     5
 0.0073597522     1    12     8    10
 0.0063597945     1    12     8    13
 0.0000003162     1    12     9     1
 -0.0146966969     1    12     9     2
 -0.0000000160     1    12     9     3
 0.0015959356     1    12     9     4
 -0.0000000022     1    12     9     5
 0.0005006196     1    12     9    10
 0.0004326012     1    12     9    13
 -0.0000000133     1    12    10     6
 -0.0000000131     1    12    10     7
 0.0017974574     1    12    10     8
 0.0001222654     1    12    10     9
 -0.5597764339     1    12    12     1
 0.0000000084     1    12    12     2
 0.0192261861     1    12    12     3
 -0.0000002307     1    12    12     4
 0.0059392605     1    12    12     5
 -0.0000000418     1    12    12    10
 -0.0000001248     1    12    12    13
 0.0000000057     1    12    13     6
 0.0000000057     1    12    13     7
 -0.0006431456     1    12    13     8
 -0.0000437475     1    12    13     9
 0.0046164483     1    13     2     1
 0.0000000497     1    13     2     2
 0.0000159733     1    13     2     3
 -0.0001603002     1    13     2     5
 0.0000010981     1    13     3     1
 -0.0508718983     1    13     3     2
 0.0000000591     1    13     3     3
 0.0012746795     1    13     3     4
 -0.0000000837     1    13     3     5
 -0.0052316545     1    13     3    10
 -0.1084195840     1    13     4     1
 0.0000000027     1    13     4     2
 0.0046681810     1    13     4     3
 -0.0000000260     1    13     4     4
 0.0059200239     1    13     4     5
 0.0000000471     1    13     4    10
 0.0000036306     1    13     5     1
 -0.1687274017     1    13     5     2
 -0.0000002226     1    13     5     3
 0.0185892359     1    13     5     4
 0.0000000510     1    13     5     5
 0.0067779240     1    13     5    10
 0.0000000826     1    13     6     6
 -0.0023134758     1    13     6     8
 0.0020011980     1    13     6     9
 -0.0000000466     1    13     6    11
 0.0000000470     1    13     6    12
 0.0000000826     1    13     7     7
 -0.0020011980     1    13     7     8
 -0.0023134758     1    13     7     9
 0.0000000470     1    13     7    11
 0.0000000466     1    13     7    12
 -0.0023766068     1    13     8     6
 -0.0020558074     1    13     8     7
 0.0000000753     1    13     8     8
 0.0004326012     1    13     8    11
 -0.0063597945     1    13     8    12
 0.0020558074     1    13     9     6
 -0.0023766068     1    13     9     7
 0.0000000753     1    13     9     9
 -0.0063597945     1    13     9    11