&FCI NORB= 19,NELEC= 14,MS2=0,
 ORBSYM=1,1,1,1,1,1,1,1,1,1,1,1,1,1,1,1,1,1,1
 ISYM=1,
&END
 0.2014847128     1     1     2     2
 -0.0002017338     1     1     2     4
 -0.0025960930     1     1     2    10
 -0.0021988827     1     1     2    14
 0.0018562098     1     1     2    18
 0.5564806657     1     1     3     3
 -0.0000000001     1     1     3     4
 -0.0023210633     1     1     3     5
 0.1009256089     1     1     3    11
 -0.1280144606     1     1     3    17
 0.0114114453     1     1     3    19
 -0.0002017338     1     1     4     2
 -0.0000000001     1     1     4     3
 0.5628058594     1     1     4     4
 -0.0264324873     1     1     4    10
 0.1221975158     1     1     4    14
 0.1052639546     1     1     4    18
 -0.0023210633     1     1     5     3
 0.5227277159     1     1     5     5
 -0.0000000001     1     1     5    10
 -0.1448051740     1     1     5    11
 -0.1300418439     1     1     5    17
 -0.0258309965     1     1     5    19
 0.5251960950     1     1     6     6
 -0.0000000001     1     1     6     9
 0.0001197539     1     1     6    12
 0.2031048933     1     1     6    13
 0.5251960950     1     1     7     7
 0.0000000001     1     1     7     8
 0.2031048933     1     1     7    12
 -0.0001197539     1     1     7    13
 0.0000000001     1     1     8     7
 0.5365854811     1     1     8     8
 0.0979645439     1     1     8    15
 -0.1807768571     1     1     8    16
 -0.0000000001     1     1     9     6
 0.5365854811     1     1     9     9
 -0.1807768571     1     1     9    15
 -0.0979645439     1     1     9    16
 -0.0025960930     1     1    10     2
 -0.0264324873     1     1    10     4
 -0.0000000001     1     1    10     5
 0.5603070442     1     1    10    10
 0.1515063403     1     1    10    14
 -0.1339242998     1     1    10    18
 0.1009256089     1     1    11     3
 -0.1448051740     1     1    11     5
 0.5465310006     1     1    11    11
 0.0324509974     1     1    11    17
 0.0012334006     1     1    11    19
 0.0001197539     1     1    12     6
 0.2031048933     1     1    12     7
 0.5206630741     1     1    12    12
 0.2031048933     1     1    13     6
 -0.0001197539     1     1    13     7
 0.5206630741     1     1    13    13
 -0.0021988827     1     1    14     2
 0.1221975158     1     1    14     4
 0.1515063403     1     1    14    10
 0.4721653937     1     1    14    14
 0.0000000001     1     1    14    17
 -0.0251773175     1     1    14    18
 0.0979645439     1     1    15     8
 -0.1807768571     1     1    15     9
 0.5115075244     1     1    15    15
 -0.1807768571     1     1    16     8
 -0.0979645439     1     1    16     9
 0.5115075244     1     1    16    16
 -0.1280144606     1     1    17     3
 -0.1300418439     1     1    17     5
 0.0324509974     1     1    17    11
 0.0000000001     1     1    17    14
 0.4596170494     1     1    17    17
 -0.0001253264     1     1    17    19
 0.0018562098     1     1    18     2
 0.1052639546     1     1    18     4
 -0.1339242998     1     1    18    10
 -0.0251773175     1     1    18    14
 0.4916896301     1     1    18    18
 0.0114114453     1     1    19     3
 -0.0258309965     1     1    19     5
 0.0012334006     1     1    19    11
 -0.0001253264     1     1    19    17
 0.4857494615     1     1    19    19
 -0.2014847128     1     2     2     1
 -0.0000727237     1     2     2     3
 0.0025211072     1     2     2     5
 -0.0024332842     1     2     2    11
 -0.0017589687     1     2     2    17
 -0.0003598025     1     2     2    19
 0.3573384070     1     2     3     4
 -0.0322675881     1     2     3    10
 0.1000531376     1     2     3    14
 0.1116372151     1     2     3    18
 0.0002017338     1     2     4     1
 0.3573426947     1     2     4     3
 0.0623957100     1     2     4     5
 0.0982234847     1     2     4    11
 -0.1355645884     1     2     4    17
 0.0026039806     1     2     4    19
 0.0624018132     1     2     5     4
 0.3226334876     1     2     5    10
 0.1470003626     1     2     5    14
 -0.0896299416     1     2     5    18
 0.0929737622     1     2     6     8
 0.3188300878     1     2     6     9
 -0.1347186822     1     2     6    15
 -0.1333655806     1     2     6    16
 -0.3188300878     1     2     7     8
 0.0929737622     1     2     7     9
 -0.1333655806     1     2     7    15
 0.1347186822     1     2     7    16
 0.0929639685     1     2     8     6
 -0.3187965028     1     2     8     7
 -0.2016907697     1     2     8    12
 0.0589439231     1     2     8    13
 0.3187965028     1     2     9     6
 0.0929639685     1     2     9     7
 0.0589439231     1     2     9    12
 0.2016907697     1     2     9    13
 0.0025960930     1     2    10     1
 -0.0322620131     1     2    10     3
 0.3225646796     1     2    10     5
 -0.2213057119     1     2    10    11
 -0.0989157201     1     2    10    17
 0.0134556503     1     2    10    19
 0.0982199681     1     2    11     4
 -0.2213789329     1     2    11    10
 -0.0919558228     1     2    11    14
 0.2531861450     1     2    11    18
 -0.2017300345     1     2    12     8
 0.0589553983     1     2    12     9
 -0.2268458986     1     2    12    15
 0.2288773628     1     2    12    16
 0.0589553983     1     2    13     8
 0.2017300345     1     2    13     9
 -0.2288773628     1     2    13    15
 -0.2268458986     1     2    13    16
 0.0021988827     1     2    14     1
 0.1000588753     1     2    14     3
 0.1469433588     1     2    14     5
 -0.0918964734     1     2    14    11
 -0.2965597682     1     2    14    17
 -0.0210688215     1     2    14    19
 -0.1346896196     1     2    15     6
 -0.1333368099     1     2    15     7
 -0.2268118638     1     2    15    12
 -0.2288430232     1     2    15    13
 -0.1333368099     1     2    16     6
 0.1346896196     1     2    16     7
 0.2288430232     1     2    16    12
 -0.2268118638     1     2    16    13
 -0.1355665989     1     2    17     4
 -0.0989655705     1     2    17    10
 -0.2966003803     1     2    17    14
 -0.0313235391     1     2    17    18
 -0.0018562098     1     2    18     1
 0.1116330358     1     2    18     3
 -0.0895786907     1     2    18     5
 0.2531331766     1     2    18    11
 -0.0313592447     1     2    18    17
 0.0924502350     1     2    18    19
 0.0026034746     1     2    19     4
 0.0134424067     1     2    19    10
 -0.0210799697     1     2    19    14
 0.0924597193     1     2    19    18
 0.0000727237     1     3     2     2
 -0.0000039806     1     3     2     4
 -0.0000055038     1     3     2    10
 -0.0000053337     1     3     2    14
 0.0000032276     1     3     2    18
 -0.5564806657     1     3     3     1
 0.0016863180     1     3     3     5
 -0.0021773788     1     3     3    11
 -0.0009186693     1     3     3    17
 -0.0002770787     1     3     3    19
 0.0000000001     1     3     4     1
 -0.3573426947     1     3     4     2
 -0.0003026090     1     3     4     4
 -0.0025499589     1     3     4    10
 -0.0025406891     1     3     4    14
 0.0013260466     1     3     4    18
 0.0023210633     1     3     5     1
 -0.0173920355     1     3     5     5
 0.0185106959     1     3     5    11
 0.0134294399     1     3     5    17
 0.0012682868     1     3     5    19
 -0.0181974157     1     3     6     6
 -0.0000132963     1     3     6    12
 -0.0225507700     1     3     6    13
 -0.0181974157     1     3     7     7
 -0.0225507700     1     3     7    12
 0.0000132963     1     3     7    13
 -0.0183016088     1     3     8     8
 -0.0104863550     1     3     8    15
 0.0193507796     1     3     8    16
 -0.0183016088     1     3     9     9
 0.0193507796     1     3     9    15
 0.0104863550     1     3     9    16
 0.0322620131     1     3    10     2
 -0.0016891884     1     3    10     4
 -0.0193017526     1     3    10    10
 -0.0171042662     1     3    10    14
 0.0139355389     1     3    10    18
 -0.1009256089     1     3    11     1
 0.0125233434     1     3    11     5
 -0.0138898819     1     3    11    11
 -0.0097475175     1     3    11    17
 -0.0007301609     1     3    11    19
 -0.0000090167     1     3    12     6
 -0.0152925032     1     3    12     7
 -0.0196167169     1     3    12    12
 -0.0152925032     1     3    13     6
 0.0000090167     1     3    13     7
 -0.0196167169     1     3    13    13
 -0.1000588753     1     3    14     2
 -0.0010316578     1     3    14     4
 -0.0120259575     1     3    14    10
 -0.0114269482     1     3    14    14
 0.0087055762     1     3    14    18
 -0.0072972107     1     3    15     8
 0.0134657577     1     3    15     9
 -0.0191212535     1     3    15    15
 0.0134657577     1     3    16     8
 0.0072972107     1     3    16     9
 -0.0191212535     1     3    16    16
 0.1280144606     1     3    17     1
 0.0085887638     1     3    17     5
 -0.0091390806     1     3    17    11
 -0.0073566543     1     3    17    17
 -0.0005921929     1     3    17    19
 -0.1116330358     1     3    18     2
 0.0007395137     1     3    18     4
 0.0092291773     1     3    18    10
 0.0082884112     1     3    18    14
 -0.0074247696     1     3    18    18
 -0.0114114453     1     3    19     1
 0.0008940810     1     3    19     5
 -0.0009073226     1     3    19    11
 -0.0007651964     1     3    19    17
 -0.0027940430     1     3    19    19
 0.0002017338     1     4     2     1
 0.0000039806     1     4     2     3
 -0.0000053250     1     4     2     5
 0.0000039187     1     4     2    11
 0.0000023197     1     4     2    17
 0.0000008344     1     4     2    19
 0.0000000001     1     4     3     1
 -0.3573384070     1     4     3     2
 -0.0008948192     1     4     3    10
 -0.0015220057     1     4     3    14
 0.0005951137     1     4     3    18
 -0.5628058594     1     4     4     1
 0.0003026090     1     4     4     3
 -0.0002007743     1     4     4     5
 0.0003352808     1     4     4    11
 0.0008517227     1     4     4    17
 0.0000041186     1     4     4    19
 -0.0624018132     1     4     5     2
 -0.0185149111     1     4     5    10
 -0.0159102271     1     4     5    14
 0.0140876569     1     4     5    18
 -0.0051313541     1     4     6     8
 -0.0175966855     1     4     6     9
 0.0158632221     1     4     6    15
 0.0157038934     1     4     6    16
 0.0175966855     1     4     7     8
 -0.0051313541     1     4     7     9
 0.0157038934     1     4     7    15
 -0.0158632221     1     4     7    16
 -0.0050895345     1     4     8     6
 0.0174532759     1     4     8     7
 0.0221011845     1     4     8    12
 -0.0064590488     1     4     8    13
 -0.0174532759     1     4     9     6
 -0.0050895345     1     4     9     7
 -0.0064590488     1     4     9    12
 -0.0221011845     1     4     9    13
 0.0264324873     1     4    10     1
 0.0016891884     1     4    10     3
 -0.0182130844     1     4    10     5
 0.0204605757     1     4    10    11
 0.0135386549     1     4    10    17
 0.0019704942     1     4    10    19
 -0.0982199681     1     4    11     2
 0.0145363506     1     4    11    10
 0.0122622678     1     4    11    14
 -0.0117342610     1     4    11    18
 0.0155221570     1     4    12     8
 -0.0045363347     1     4    12     9
 0.0141575232     1     4    12    15
 -0.0142843076     1     4    12    16
 -0.0045363347     1     4    13     8
 -0.0155221570     1     4    13     9
 0.0142843076     1     4    13    15
 0.0141575232     1     4    13    16
 -0.1221975158     1     4    14     1
 0.0010316578     1     4    14     3
 -0.0110116972     1     4    14     5
 0.0124557013     1     4    14    11
 0.0083665480     1     4    14    17
 0.0011870331     1     4    14    19
 0.0107971925     1     4    15     6
 0.0106887466     1     4    15     7
 0.0137420430     1     4    15    12
 0.0138651066     1     4    15    13
 0.0106887466     1     4    16     6
 -0.0107971925     1     4    16     7
 -0.0138651066     1     4    16    12
 0.0137420430     1     4    16    13
 0.1355665989     1     4    17     2
 0.0098365560     1     4    17    10
 0.0086808035     1     4    17    14
 -0.0074614733     1     4    17    18
 -0.1052639546     1     4    18     1
 -0.0007395137     1     4    18     3
 0.0084684092     1     4    18     5
 -0.0100950942     1     4    18    11
 -0.0059495359     1     4    18    17
 -0.0014580459     1     4    18    19
 -0.0026034746     1     4    19     2
 0.0005947531     1     4    19    10
 0.0003108926     1     4    19    14
 -0.0008090740     1     4    19    18
 -0.0025211072     1     5     2     2
 0.0000053250     1     5     2     4
 0.0000703201     1     5     2    10
 0.0000575184     1     5     2    14
 -0.0000496639     1     5     2    18
 0.0023210633     1     5     3     1
 -0.0016863180     1     5     3     3
 0.0061226078     1     5     3    11
 0.0049259685     1     5     3    17
 0.0003733108     1     5     3    19
 -0.0623957100     1     5     4     2
 0.0002007743     1     5     4     4
 -0.0003989062     1     5     4    10
 -0.0049946212     1     5     4    14
 0.0056988542     1     5     4    18
 -0.5227277159     1     5     5     1
 0.0173920355     1     5     5     3
 0.0045249014     1     5     5    11
 -0.0077898201     1     5     5    17
 0.0079453156     1     5     5    19
 -0.0025574048     1     5     6     6
 -0.0000007922     1     5     6    12
 -0.0013435095     1     5     6    13
 -0.0025574048     1     5     7     7
 -0.0013435095     1     5     7    12
 0.0000007922     1     5     7    13
 -0.0025084347     1     5     8     8
 -0.0011032268     1     5     8    15
 0.0020358170     1     5     8    16
 -0.0025084347     1     5     9     9
 0.0020358170     1     5     9    15
 0.0011032268     1     5     9    16
 0.0000000001     1     5    10     1
 -0.3225646796     1     5    10     2
 0.0182130844     1     5    10     4
 -0.0056139542     1     5    10    10
 0.0043103422     1     5    10    14
 0.0113861858     1     5    10    18
 0.1448051740     1     5    11     1
 -0.0125233434     1     5    11     3
 -0.0125658542     1     5    11    11
 0.0075150562     1     5    11    17
 -0.0044322056     1     5    11    19
 -0.0000009215     1     5    12     6
 -0.0015628221     1     5    12     7
 -0.0033381705     1     5    12    12
 -0.0015628221     1     5    13     6
 0.0000009215     1     5    13     7
 -0.0033381705     1     5    13    13
 -0.1469433588     1     5    14     2
 0.0110116972     1     5    14     4
 -0.0026854328     1     5    14    10
 0.0068572056     1     5    14    14
 0.0081701963     1     5    14    18
 -0.0007053286     1     5    15     8
 0.0013015635     1     5    15     9
 -0.0023769630     1     5    15    15
 0.0013015635     1     5    16     8
 0.0007053286     1     5    16     9
 -0.0023769630     1     5    16    16
 0.1300418439     1     5    17     1
 -0.0085887638     1     5    17     3
 -0.0048347652     1     5    17    11
 0.0067278493     1     5    17    17
 -0.0025094296     1     5    17    19
 0.0895786907     1     5    18     2
 -0.0084684092     1     5    18     4
 0.0020405987     1     5    18    10
 -0.0057294147     1     5    18    14
 -0.0084135954     1     5    18    18
 0.0258309965     1     5    19     1
 -0.0008940810     1     5    19     3
 0.0045379067     1     5    19    11
 0.0047796739     1     5    19    17
 -0.0009657775     1     5    19    19
 0.0000101086     1     6     2     8
 0.0000346649     1     6     2     9
 -0.0000291816     1     6     2    15
 -0.0000288885     1     6     2    16
 -0.0000043976     1     6     3    12
 -0.0074583784     1     6     3    13
 -0.0000619957     1     6     4     8
 -0.0002125985     1     6     4     9
 0.0051752825     1     6     4    15
 0.0051233024     1     6     4    16
 0.0000001254     1     6     5    12
 0.0002126510     1     6     5    13
 -0.5251960950     1     6     6     1
 0.0181974157     1     6     6     3
 0.0025574048     1     6     6     5
 0.0053778724     1     6     6    11
 -0.0090144527     1     6     6    17
 -0.0036651682     1     6     6    19
 -0.0929639685     1     6     8     2
 0.0050895345     1     6     8     4
 -0.0009625699     1     6     8    10
 0.0016759100     1     6     8    14
 0.0020257906     1     6     8    18
 0.0000000001     1     6     9     1
 -0.3187965028     1     6     9     2
 0.0174532759     1     6     9     4
 -0.0033008908     1     6     9    10
 0.0057471111     1     6     9    14
 0.0069469384     1     6     9    18
 -0.0000102902     1     6    10     8
 -0.0000352876     1     6    10     9
 -0.0002324224     1     6    10    15
 -0.0002300880     1     6    10    16
 0.0000007117     1     6    11    12
 0.0012072067     1     6    11    13
 -0.0001197539     1     6    12     1
 0.0000090167     1     6    12     3
 0.0000009215     1     6    12     5
 0.0000059841     1     6    12    11
 -0.0000072065     1     6    12    17
 -0.0000008038     1     6    12    19
 -0.2031048933     1     6    13     1
 0.0152925032     1     6    13     3
 0.0015628221     1     6    13     5
 0.0101490578     1     6    13    11
 -0.0122223803     1     6    13    17
 -0.0013633636     1     6    13    19
 -0.0000059381     1     6    14     8
 -0.0000203633     1     6    14     9
 -0.0008797928     1     6    14    15
 -0.0008709562     1     6    14    16
 0.1346896196     1     6    15     2
 -0.0107971925     1     6    15     4
 0.0014613624     1     6    15    10
 -0.0073894083     1     6    15    14
 -0.0078443411     1     6    15    18
 0.1333368099     1     6    16     2
 -0.0106887466     1     6    16     4
 0.0014466847     1     6    16    10
 -0.0073151898     1     6    16    14
 -0.0077655532     1     6    16    18
 -0.0000011492     1     6    17    12
 -0.0019490885     1     6    17    13
 -0.0000662205     1     6    18     8
 -0.0002270864     1     6    18     9
 -0.0021015816     1     6    18    15
 -0.0020804736     1     6    18    16
 0.0000019773     1     6    19    12
 0.0033534699     1     6    19    13
 -0.0000346649     1     7     2     8
 0.0000101086     1     7     2     9
 -0.0000288885     1     7     2    15
 0.0000291816     1     7     2    16
 -0.0074583784     1     7     3    12
 0.0000043976     1     7     3    13
 0.0002125985     1     7     4     8
 -0.0000619957     1     7     4     9
 0.0051233024     1     7     4    15
 -0.0051752825     1     7     4    16
 0.0002126510     1     7     5    12
 -0.0000001254     1     7     5    13
 -0.5251960950     1     7     7     1
 0.0181974157     1     7     7     3
 0.0025574048     1     7     7     5
 0.0053778724     1     7     7    11
 -0.0090144527     1     7     7    17
 -0.0036651682     1     7     7    19
 -0.0000000001     1     7     8     1
 0.3187965028     1     7     8     2
 -0.0174532759     1     7     8     4
 0.0033008908     1     7     8    10
 -0.0057471111     1     7     8    14
 -0.0069469384     1     7     8    18
 -0.0929639685     1     7     9     2
 0.0050895345     1     7     9     4
 -0.0009625699     1     7     9    10
 0.0016759100     1     7     9    14
 0.0020257906     1     7     9    18
 0.0000352876     1     7    10     8
 -0.0000102902     1     7    10     9
 -0.0002300880     1     7    10    15
 0.0002324224     1     7    10    16
 0.0012072067     1     7    11    12
 -0.0000007117     1     7    11    13
 -0.2031048933     1     7    12     1
 0.0152925032     1     7    12     3
 0.0015628221     1     7    12     5
 0.0101490578     1     7    12    11
 -0.0122223803     1     7    12    17
 -0.0013633636     1     7    12    19
 0.0001197539     1     7    13     1
 -0.0000090167     1     7    13     3
 -0.0000009215     1     7    13     5
 -0.0000059841     1     7    13    11
 0.0000072065     1     7    13    17
 0.0000008038     1     7    13    19
 0.0000203633     1     7    14     8
 -0.0000059381     1     7    14     9
 -0.0008709562     1     7    14    15
 0.0008797928     1     7    14    16
 0.1333368099     1     7    15     2
 -0.0106887466     1     7    15     4
 0.0014466847     1     7    15    10
 -0.0073151898     1     7    15    14
 -0.0077655532     1     7    15    18
 -0.1346896196     1     7    16     2
 0.0107971925     1     7    16     4
 -0.0014613624     1     7    16    10
 0.0073894083     1     7    16    14
 0.0078443411     1     7    16    18
 -0.0019490885     1     7    17    12
 0.0000011492     1     7    17    13
 0.0002270864     1     7    18     8
 -0.0000662205     1     7    18     9
 -0.0020804736     1     7    18    15
 0.0021015816     1     7    18    16
 0.0033534699     1     7    19    12
 -0.0000019773     1     7    19    13
 -0.0000101086     1     8     2     6
 0.0000346649     1     8     2     7
 0.0000401022     1     8     2    12
 -0.0000117199     1     8     2    13
 -0.0030281103     1     8     3    15
 0.0055878612     1     8     3    16
 0.0000619957     1     8     4     6
 -0.0002125985     1     8     4     7
 0.0062932076     1     8     4    12
 -0.0018391836     1     8     4    13
 -0.0003687351     1     8     5    15
 0.0006804378     1     8     5    16
 -0.0929737622     1     8     6     2
 0.0051313541     1     8     6     4
 -0.0009692664     1     8     6    10
 0.0016864631     1     8     6    14
 0.0021101567     1     8     6    18
 -0.0000000001     1     8     7     1
 0.3188300878     1     8     7     2
 -0.0175966855     1     8     7     4
 0.0033238549     1     8     7    10
 -0.0057833002     1     8     7    14
 -0.0072362506     1     8     7    18
 -0.5365854811     1     8     8     1
 0.0183016088     1     8     8     3
 0.0025084347     1     8     8     5
 0.0065441076     1     8     8    11
 -0.0093447939     1     8     8    17
 -0.0038148456     1     8     8    19
 0.0000102902     1     8    10     6
 -0.0000352876     1     8    10     7
 -0.0007548385     1     8    10    12
 0.0002206008     1     8    10    13
 0.0001543886     1     8    11    15
 -0.0002848977     1     8    11    16
 0.2017300345     1     8    12     2
 -0.0155221570     1     8    12     4
 0.0022124166     1     8    12    10
 -0.0096397448     1     8    12    14
 -0.0107928781     1     8    12    18
 -0.0589553983     1     8    13     2
 0.0045363347     1     8    13     4
 -0.0006465765     1     8    13    10
 0.0028172056     1     8    13    14
 0.0031542077     1     8    13    18
 0.0000059381     1     8    14     6
 -0.0000203633     1     8    14     7
 -0.0010595122     1     8    14    12
 0.0003096414     1     8    14    13
 -0.0979645439     1     8    15     1
 0.0072972107     1     8    15     3
 0.0007053286     1     8    15     5
 0.0043797630     1     8    15    11
 -0.0060359845     1     8    15    17
 -0.0006186669     1     8    15    19
 0.1807768571     1     8    16     1
 -0.0134657577     1     8    16     3
 -0.0013015635     1     8    16     5
 -0.0080821056     1     8    16    11
 0.0111383798     1     8    16    17
 0.0011416442     1     8    16    19
 -0.0006867877     1     8    17    15
 0.0012673495     1     8    17    16
 0.0000662205     1     8    18     6
 -0.0002270864     1     8    18     7
 -0.0025597804     1     8    18    12
 0.0007480932     1     8    18    13
 0.0016626637     1     8    19    15
 -0.0030681622     1     8    19    16
 -0.0000346649     1     9     2     6
 -0.0000101086     1     9     2     7
 -0.0000117199     1     9     2    12
 -0.0000401022     1     9     2    13
 0.0055878612     1     9     3    15
 0.0030281103     1     9     3    16
 0.0002125985     1     9     4     6
 0.0000619957     1     9     4     7
 -0.0018391836     1     9     4    12
 -0.0062932076     1     9     4    13
 0.0006804378     1     9     5    15
 0.0003687351     1     9     5    16
 0.0000000001     1     9     6     1
 -0.3188300878     1     9     6     2
 0.0175966855     1     9     6     4
 -0.0033238549     1     9     6    10
 0.0057833002     1     9     6    14
 0.0072362506     1     9     6    18
 -0.0929737622     1     9     7     2
 0.0051313541     1     9     7     4
 -0.0009692664     1     9     7    10
 0.0016864631     1     9     7    14
 0.0021101567     1     9     7    18
 -0.5365854811     1     9     9     1
 0.0183016088     1     9     9     3
 0.0025084347     1     9     9     5
 0.0065441076     1     9     9    11
 -0.0093447939     1     9     9    17
 -0.0038148456     1     9     9    19
 0.0000352876     1     9    10     6
 0.0000102902     1     9    10     7
 0.0002206008     1     9    10    12
 0.0007548385     1     9    10    13
 -0.0002848977     1     9    11    15
 -0.0001543886     1     9    11    16
 -0.0589553983     1     9    12     2
 0.0045363347     1     9    12     4
 -0.0006465765     1     9    12    10
 0.0028172056     1     9    12    14
 0.0031542077     1     9    12    18
 -0.2017300345     1     9    13     2
 0.0155221570     1     9    13     4
 -0.0022124166     1     9    13    10
 0.0096397448     1     9    13    14
 0.0107928781     1     9    13    18
 0.0000203633     1     9    14     6
 0.0000059381     1     9    14     7
 0.0003096414     1     9    14    12
 0.0010595122     1     9    14    13
 0.1807768571     1     9    15     1
 -0.0134657577     1     9    15     3
 -0.0013015635     1     9    15     5
 -0.0080821056     1     9    15    11
 0.0111383798     1     9    15    17
 0.0011416442     1     9    15    19
 0.0979645439     1     9    16     1
 -0.0072972107     1     9    16     3
 -0.0007053286     1     9    16     5
 -0.0043797630     1     9    16    11
 0.0060359845     1     9    16    17
 0.0006186669     1     9    16    19
 0.0012673495     1     9    17    15
 0.0006867877     1     9    17    16
 0.0002270864     1     9    18     6
 0.0000662205     1     9    18     7
 0.0007480932     1     9    18    12
 0.0025597804     1     9    18    13
 -0.0030681622     1     9    19    15
 -0.0016626637     1     9    19    16
 0.0025960930     1    10     2     1
 0.0000055038     1    10     2     3
 -0.0000703201     1    10     2     5
 0.0000760771     1    10     2    11
 0.0000506546     1    10     2    17
 0.0000133823     1    10     2    19
 0.0322675881     1    10     3     2
 0.0008948192     1    10     3     4
 -0.0048763911     1    10     3    14
 0.0044614262     1    10     3    18
 0.0264324873     1    10     4     1
 0.0025499589     1    10     4     3
 0.0003989062     1    10     4     5
 0.0057736388     1    10     4    11
 0.0035704311     1    10     4    17
 0.0013245180     1    10     4    19
 0.0000000001     1    10     5     1
 -0.3226334876     1    10     5     2
 0.0185149111     1    10     5     4
 0.0070272525     1    10     5    14
 0.0093760690     1    10     5    18
 0.0009692664     1    10     6     8
 0.0033238549     1    10     6     9
 -0.0016859861     1    10     6    15
 -0.0016690522     1    10     6    16
 -0.0033238549     1    10     7     8
 0.0009692664     1    10     7     9
 -0.0016690522     1    10     7    15
 0.0016859861     1    10     7    16
 0.0009625699     1    10     8     6
 -0.0033008908     1    10     8     7
 -0.0029727870     1    10     8    12
 0.0008687940     1    10     8    13
 0.0033008908     1    10     9     6
 0.0009625699     1    10     9     7
 0.0008687940     1    10     9    12
 0.0029727870     1    10     9    13
 -0.5603070442     1    10    10     1
 0.0193017526     1    10    10     3
 0.0056139542     1    10    10     5
 0.0035595072     1    10    10    11
 -0.0119867549     1    10    10    17
 0.0087101742     1    10    10    19
 0.2213789329     1    10    11     2
 -0.0145363506     1    10    11     4
 -0.0096036017     1    10    11    14
 -0.0085079008     1    10    11    18
 -0.0022124166     1    10    12     8
 0.0006465765     1    10    12     9
 -0.0025023730     1    10    12    15
 0.0025247825     1    10    12    16
 0.0006465765     1    10    13     8
 0.0022124166     1    10    13     9
 -0.0025247825     1    10    13    15
 -0.0025023730     1    10    13    16
 -0.1515063403     1    10    14     1
 0.0120259575     1    10    14     3
 0.0026854328     1    10    14     5
 0.0039703126     1    10    14    11
 -0.0130748265     1    10    14    17
 0.0033227126     1    10    14    19
 -0.0014613624     1    10    15     6
 -0.0014466847     1    10    15     7
 -0.0028731563     1    10    15    12
 -0.0028988862     1    10    15    13
 -0.0014466847     1    10    16     6
 0.0014613624     1    10    16     7
 0.0028988862     1    10    16    12
 -0.0028731563     1    10    16    13
 0.0989655705     1    10    17     2
 -0.0098365560     1    10    17     4
 -0.0095274688     1    10    17    14
 -0.0059385786     1    10    17    18
 0.1339242998     1    10    18     1
 -0.0092291773     1    10    18     3
 -0.0020405987     1    10    18     5
 -0.0029584102     1    10    18    11
 0.0090724258     1    10    18    17
 -0.0019271626     1    10    18    19
 -0.0134424067     1    10    19     2
 -0.0005947531     1    10    19     4
 -0.0056042746     1    10    19    14
 0.0042984914     1    10    19    18
 0.0024332842     1    11     2     2
 -0.0000039187     1    11     2     4
 -0.0000760771     1    11     2    10
 -0.0000619136     1    11     2    14
 0.0000584098     1    11     2    18
 -0.1009256089     1    11     3     1
 0.0021773788     1    11     3     3
 -0.0061226078     1    11     3     5
 -0.0005991545     1    11     3    17
 0.0001765596     1    11     3    19
 -0.0982234847     1    11     4     2
 -0.0003352808     1    11     4     4
 -0.0057736388     1    11     4    10
 -0.0001998018     1    11     4    14
 -0.0016201236     1    11     4    18
 0.1448051740     1    11     5     1
 -0.0185106959     1    11     5     3
 -0.0045249014     1    11     5     5