&FCI NORB= 13,NELEC= 14,MS2=0,
 ORBSYM=1,1,1,1,1,1,1,1,1,1,1,1,1
 ISYM=1,
&END
 0.6051038836     1     1     2     2
 -0.0140388728     1     1     2     6
 -0.0055190474     1     1     2    10
 0.9243565906     1     1     3     3
 0.1330196747     1     1     3     7
 -0.0956517886     1     1     3    11
 0.7524217151     1     1     4     4
 -0.1788569402     1     1     4    12
 0.1243739251     1     1     4    13
 0.7524217151     1     1     5     5
 -0.1243739251     1     1     5    12
 -0.1788569402     1     1     5    13
 -0.0140388728     1     1     6     2
 0.6549585990     1     1     6     6
 0.1352553958     1     1     6    10
 0.1330196747     1     1     7     3
 0.7051256888     1     1     7     7
 -0.1428220624     1     1     7    11
 0.5743053833     1     1     8     8
 0.5743053833     1     1     9     9
 -0.0055190474     1     1    10     2
 0.1352553958     1     1    10     6
 0.3740821509     1     1    10    10
 -0.0956517886     1     1    11     3
 -0.1428220624     1     1    11     7
 0.4564589477     1     1    11    11
 -0.1788569402     1     1    12     4
 -0.1243739251     1     1    12     5
 0.5554781142     1     1    12    12
 0.1243739251     1     1    13     4
 -0.1788569402     1     1    13     5
 0.5554781142     1     1    13    13
 -0.6051038836     1     2     2     1
 -0.0221261369     1     2     2     3
 -0.0278566158     1     2     2     7
 0.0156860551     1     2     2    11
 0.0994646716     1     2     3     6
 0.0502915871     1     2     3    10
 -0.1405734920     1     2     4     8
 0.0538295620     1     2     4     9
 0.0538295620     1     2     5     8
 0.1405734920     1     2     5     9
 0.0140388728     1     2     6     1
 0.1005010941     1     2     6     3
 -0.2244132918     1     2     6     7
 0.0183732950     1     2     6    11
 -0.2257139359     1     2     7     6
 -0.0406483515     1     2     7    10
 -0.1397226660     1     2     8     4
 0.0535037567     1     2     8     5
 0.0408415022     1     2     8    12
 -0.0600227685     1     2     8    13
 0.0535037567     1     2     9     4
 0.1397226660     1     2     9     5
 -0.0600227685     1     2     9    12
 -0.0408415022     1     2     9    13
 0.0055190474     1     2    10     1
 0.0505183729     1     2    10     3
 -0.0401711688     1     2    10     7
 0.0666323111     1     2    10    11
 0.0191239398     1     2    11     6
 0.0669042796     1     2    11    10
 0.0412531066     1     2    12     8
 -0.0606276834     1     2    12     9
 -0.0606276834     1     2    13     8
 -0.0412531066     1     2    13     9
 0.0221261369     1     3     2     2
 -0.0010108698     1     3     2     6
 -0.0003090514     1     3     2    10
 -0.9243565906     1     3     3     1
 -0.0301570374     1     3     3     7
 0.0167122021     1     3     3    11
 -0.0203345510     1     3     4     4
 0.0168503049     1     3     4    12
 -0.0117174014     1     3     4    13
 -0.0203345510     1     3     5     5
 0.0117174014     1     3     5    12
 0.0168503049     1     3     5    13
 -0.1005010941     1     3     6     2
 -0.0126626431     1     3     6     6
 -0.0036369282     1     3     6    10
 -0.1330196747     1     3     7     1
 -0.0269359881     1     3     7     7
 0.0097241007     1     3     7    11
 -0.0108205654     1     3     8     8
 -0.0108205654     1     3     9     9
 -0.0505183729     1     3    10     2
 -0.0030109173     1     3    10     6
 -0.0029431919     1     3    10    10
 0.0956517886     1     3    11     1
 0.0107039383     1     3    11     7
 -0.0053783543     1     3    11    11
 0.0100390019     1     3    12     4
 0.0069809427     1     3    12     5
 -0.0115457249     1     3    12    12
 -0.0069809427     1     3    13     4
 0.0100390019     1     3    13     5
 -0.0115457249     1     3    13    13
 -0.0008246894     1     4     2     8
 0.0003157968     1     4     2     9
 0.0066438083     1     4     3    12
 -0.0046199858     1     4     3    13
 -0.7524217151     1     4     4     1
 0.0203345510     1     4     4     3
 -0.0189794271     1     4     4     7
 0.0086072513     1     4     4    11
 -0.0041222607     1     4     6     8
 0.0015785302     1     4     6     9
 -0.0049177246     1     4     7    12
 0.0034196980     1     4     7    13
 0.1397226660     1     4     8     2
 -0.0108176861     1     4     8     6
 -0.0056572811     1     4     8    10
 -0.0535037567     1     4     9     2
 0.0041423977     1     4     9     6
 0.0021663328     1     4     9    10
 -0.0012510962     1     4    10     8
 0.0004790801     1     4    10     9
 0.0039686067     1     4    11    12
 -0.0027596982     1     4    11    13
 0.1788569402     1     4    12     1
 -0.0100390019     1     4    12     3
 0.0055590338     1     4    12     7
 -0.0005876639     1     4    12    11
 -0.1243739251     1     4    13     1
 0.0069809427     1     4    13     3
 -0.0038656529     1     4    13     7
 0.0004086510     1     4    13    11
 0.0003157968     1     5     2     8
 0.0008246894     1     5     2     9
 0.0046199858     1     5     3    12
 0.0066438083     1     5     3    13
 -0.7524217151     1     5     5     1
 0.0203345510     1     5     5     3
 -0.0189794271     1     5     5     7
 0.0086072513     1     5     5    11
 0.0015785302     1     5     6     8
 0.0041222607     1     5     6     9
 -0.0034196980     1     5     7    12
 -0.0049177246     1     5     7    13
 -0.0535037567     1     5     8     2
 0.0041423977     1     5     8     6
 0.0021663328     1     5     8    10
 -0.1397226660     1     5     9     2
 0.0108176861     1     5     9     6
 0.0056572811     1     5     9    10
 0.0004790801     1     5    10     8
 0.0012510962     1     5    10     9
 0.0027596982     1     5    11    12
 0.0039686067     1     5    11    13
 0.1243739251     1     5    12     1
 -0.0069809427     1     5    12     3
 0.0038656529     1     5    12     7
 -0.0004086510     1     5    12    11
 0.1788569402     1     5    13     1
 -0.0100390019     1     5    13     3
 0.0055590338     1     5    13     7
 -0.0005876639     1     5    13    11
 0.0140388728     1     6     2     1
 0.0010108698     1     6     2     3
 0.0012922349     1     6     2     7
 -0.0007687882     1     6     2    11
 -0.0994646716     1     6     3     2
 -0.0006981843     1     6     3    10
 0.0071158634     1     6     4     8
 -0.0027248652     1     6     4     9
 -0.0027248652     1     6     5     8
 -0.0071158634     1     6     5     9
 -0.6549585990     1     6     6     1
 0.0126626431     1     6     6     3
 0.0007943056     1     6     6     7
 -0.0059899347     1     6     6    11
 0.2257139359     1     6     7     2
 0.0001535839     1     6     7    10
 0.0108176861     1     6     8     4
 -0.0041423977     1     6     8     5
 -0.0085362828     1     6     8    12
 0.0125453595     1     6     8    13
 -0.0041423977     1     6     9     4
 -0.0108176861     1     6     9     5
 0.0125453595     1     6     9    12
 0.0085362828     1     6     9    13
 -0.1352553958     1     6    10     1
 0.0030109173     1     6    10     3
 -0.0006914603     1     6    10     7
 0.0017841654     1     6    10    11
 -0.0191239398     1     6    11     2
 0.0033147241     1     6    11    10
 -0.0041621653     1     6    12     8
 0.0061169319     1     6    12     9
 0.0061169319     1     6    13     8
 0.0041621653     1     6    13     9
 0.0278566158     1     7     2     2
 -0.0012922349     1     7     2     6
 -0.0004887618     1     7     2    10
 -0.1330196747     1     7     3     1
 0.0301570374     1     7     3     3
 -0.0009795553     1     7     3    11
 0.0189794271     1     7     4     4
 -0.0106840218     1     7     4    12
 0.0074294782     1     7     4    13
 0.0189794271     1     7     5     5
 -0.0074294782     1     7     5    12
 -0.0106840218     1     7     5    13
 0.2244132918     1     7     6     2
 -0.0007943056     1     7     6     6
 0.0009254863     1     7     6    10
 -0.7051256888     1     7     7     1
 0.0269359881     1     7     7     3
 -0.0084038737     1     7     7    11
 0.0070768503     1     7     8     8
 0.0070768503     1     7     9     9
 0.0401711688     1     7    10     2
 0.0006914603     1     7    10     6
 -0.0018651969     1     7    10    10
 0.1428220624     1     7    11     1
 -0.0107039383     1     7    11     3
 0.0021426386     1     7    11    11
 -0.0055590338     1     7    12     4
 -0.0038656529     1     7    12     5
 0.0071328958     1     7    12    12
 0.0038656529     1     7    13     4
 -0.0055590338     1     7    13     5
 0.0071328958     1     7    13    13
 0.0008246894     1     8     2     4
 -0.0003157968     1     8     2     5
 -0.0004228973     1     8     2    12
 0.0006215116     1     8     2    13
 0.1405734920     1     8     4     2
 -0.0071158634     1     8     4     6
 -0.0042869823     1     8     4    10
 -0.0538295620     1     8     5     2
 0.0027248652     1     8     5     6
 0.0016416067     1     8     5    10
 0.0041222607     1     8     6     4
 -0.0015785302     1     8     6     5
 -0.0041094975     1     8     6    12
 0.0060395287     1     8     6    13
 -0.5743053833     1     8     8     1
 0.0108205654     1     8     8     3
 -0.0070768503     1     8     8     7
 0.0007919865     1     8     8    11
 0.0012510962     1     8    10     4
 -0.0004790801     1     8    10     5
 -0.0012386722     1     8    10    12
 0.0018204162     1     8    10    13
 -0.0412531066     1     8    12     2
 0.0041621653     1     8    12     6
 0.0026866893     1     8    12    10
 0.0606276834     1     8    13     2
 -0.0061169319     1     8    13     6
 -0.0039484966     1     8    13    10
 -0.0003157968     1     9     2     4
 -0.0008246894     1     9     2     5
 0.0006215116     1     9     2    12
 0.0004228973     1     9     2    13
 -0.0538295620     1     9     4     2
 0.0027248652     1     9     4     6
 0.0016416067     1     9     4    10
 -0.1405734920     1     9     5     2
 0.0071158634     1     9     5     6
 0.0042869823     1     9     5    10
 -0.0015785302     1     9     6     4
 -0.0041222607     1     9     6     5
 0.0060395287     1     9     6    12
 0.0041094975     1     9     6    13
 -0.5743053833     1     9     9     1
 0.0108205654     1     9     9     3
 -0.0070768503     1     9     9     7
 0.0007919865     1     9     9    11
 -0.0004790801     1     9    10     4
 -0.0012510962     1     9    10     5
 0.0018204162     1     9    10    12
 0.0012386722     1     9    10    13
 0.0606276834     1     9    12     2
 -0.0061169319     1     9    12     6
 -0.0039484966     1     9    12    10
 0.0412531066     1     9    13     2
 -0.0041621653     1     9    13     6
 -0.0026866893     1     9    13    10
 0.0055190474     1    10     2     1
 0.0003090514     1    10     2     3
 0.0004887618     1    10     2     7
 -0.0002814923     1    10     2    11
 -0.0502915871     1    10     3     2
 0.0006981843     1    10     3     6
 0.0042869823     1    10     4     8
 -0.0016416067     1    10     4     9
 -0.0016416067     1    10     5     8
 -0.0042869823     1    10     5     9
 -0.1352553958     1    10     6     1
 0.0036369282     1    10     6     3
 -0.0009254863     1    10     6     7
 -0.0015641720     1    10     6    11
 0.0406483515     1    10     7     2
 -0.0001535839     1    10     7     6
 0.0056572811     1    10     8     4
 -0.0021663328     1    10     8     5
 -0.0039332420     1    10     8    12
 0.0057804945     1    10     8    13
 -0.0021663328     1    10     9     4
 -0.0056572811     1    10     9     5
 0.0057804945     1    10     9    12
 0.0039332420     1    10     9    13
 -0.3740821509     1    10    10     1
 0.0029431919     1    10    10     3
 0.0018651969     1    10    10     7
 -0.0004927663     1    10    10    11
 -0.0669042796     1    10    11     2
 -0.0033147241     1    10    11     6
 -0.0026866893     1    10    12     8
 0.0039484966     1    10    12     9
 0.0039484966     1    10    13     8
 0.0026866893     1    10    13     9
 -0.0156860551     1    11     2     2
 0.0007687882     1    11     2     6
 0.0002814923     1    11     2    10
 0.0956517886     1    11     3     1
 -0.0167122021     1    11     3     3
 0.0009795553     1    11     3     7
 -0.0086072513     1    11     4     4
 0.0045154446     1    11     4    12
 -0.0031399596     1    11     4    13
 -0.0086072513     1    11     5     5
 0.0031399596     1    11     5    12
 0.0045154446     1    11     5    13
 -0.0183732950     1    11     6     2
 0.0059899347     1    11     6     6
 0.0015641720     1    11     6    10
 0.1428220624     1    11     7     1
 -0.0097241007     1    11     7     3
 0.0084038737     1    11     7     7
 -0.0007919865     1    11     8     8
 -0.0007919865     1    11     9     9
 -0.0666323111     1    11    10     2
 -0.0017841654     1    11    10     6
 0.0004927663     1    11    10    10
 -0.4564589477     1    11    11     1
 0.0053783543     1    11    11     3
 -0.0021426386     1    11    11     7
 0.0005876639     1    11    12     4
 0.0004086510     1    11    12     5
 -0.0010521033     1    11    12    12
 -0.0004086510     1    11    13     4
 0.0005876639     1    11    13     5
 -0.0010521033     1    11    13    13
 0.0004228973     1    12     2     8
 -0.0006215116     1    12     2     9
 -0.0066438083     1    12     3     4
 -0.0046199858     1    12     3     5
 0.1788569402     1    12     4     1
 -0.0168503049     1    12     4     3
 0.0106840218     1    12     4     7
 -0.0045154446     1    12     4    11
 0.1243739251     1    12     5     1
 -0.0117174014     1    12     5     3
 0.0074294782     1    12     5     7
 -0.0031399596     1    12     5    11
 0.0041094975     1    12     6     8
 -0.0060395287     1    12     6     9
 0.0049177246     1    12     7     4
 0.0034196980     1    12     7     5
 -0.0408415022     1    12     8     2
 0.0085362828     1    12     8     6
 0.0039332420     1    12     8    10
 0.0600227685     1    12     9     2
 -0.0125453595     1    12     9     6
 -0.0057804945     1    12     9    10
 0.0012386722     1    12    10     8
 -0.0018204162     1    12    10     9
 -0.0039686067     1    12    11     4
 -0.0027596982     1    12    11     5
 -0.5554781142     1    12    12     1
 0.0115457249     1    12    12     3
 -0.0071328958     1    12    12     7
 0.0010521033     1    12    12    11
 -0.0006215116     1    13     2     8
 -0.0004228973     1    13     2     9
 0.0046199858     1    13     3     4
 -0.0066438083     1    13     3     5
 -0.1243739251     1    13     4     1
 0.0117174014     1    13     4     3
 -0.0074294782     1    13     4     7
 0.0031399596     1    13     4    11
 0.1788569402     1    13     5     1
 -0.0168503049     1    13     5     3
 0.0106840218     1    13     5     7
 -0.0045154446     1    13     5    11
 -0.0060395287     1    13     6     8
 -0.0041094975     1    13     6     9
 -0.0034196980     1    13     7     4
 0.0049177246     1    13     7     5
 0.0600227685     1    13     8     2
 -0.0125453595     1    13     8     6
 -0.0057804945     1    13     8    10
 0.0408415022     1    13     9     2
 -0.0085362828     1    13     9     6
 -0.0039332420     1    13     9    10
 -0.0018204162     1    13    10     8
 -0.0012386722     1    13    10     9
 0.0027596982     1    13    11     4
 -0.0039686067     1    13    11     5
 -0.5554781142     1    13    13     1
 0.0115457249     1    13    13     3
 -0.0071328958     1    13    13     7
 0.0010521033     1    13    13    11
 -0.6051038836     2     1     1     2
 0.0140388728     2     1     1     6
 0.0055190474     2     1     1    10
 -0.0221261369     2     1     3     2
 0.1005010941     2     1     3     6
 0.0505183729     2     1     3    10
 -0.1397226660     2     1     4     8
 0.0535037567     2     1     4     9
 0.0535037567     2     1     5     8
 0.1397226660     2     1     5     9
 0.0994646716     2     1     6     3
 -0.2257139359     2     1     6     7
 0.0191239398     2     1     6    11
 -0.0278566158     2     1     7     2
 -0.2244132918     2     1     7     6
 -0.0401711688     2     1     7    10
 -0.1405734920     2     1     8     4
 0.0538295620     2     1     8     5
 0.0412531066     2     1     8    12
 -0.0606276834     2     1     8    13
 0.0538295620     2     1     9     4
 0.1405734920     2     1     9     5
 -0.0606276834     2     1     9    12
 -0.0412531066     2     1     9    13
 0.0502915871     2     1    10     3
 -0.0406483515     2     1    10     7
 0.0669042796     2     1    10    11
 0.0156860551     2     1    11     2
 0.0183732950     2     1    11     6
 0.0666323111     2     1    11    10
 0.0408415022     2     1    12     8
 -0.0600227685     2     1    12     9
 -0.0600227685     2     1    13     8
 -0.0408415022     2     1    13     9
 0.6051038836     2     2     1     1
 0.0221261369     2     2     1     3
 0.0278566158     2     2     1     7
 -0.0156860551     2     2     1    11
 0.0221261369     2     2     3     1
 0.9248090303     2     2     3     3
 0.1344745585     2     2     3     7
 -0.0965776908     2     2     3    11
 0.7538423635     2     2     4     4
 -0.1799032670     2     2     4    12
 0.1251015221     2     2     4    13
 0.7538423635     2     2     5     5
 -0.1251015221     2     2     5    12
 -0.1799032670     2     2     5    13
 0.6545779018     2     2     6     6
 0.1350163315     2     2     6    10
 0.0278566158     2     2     7     1
 0.1344745585     2     2     7     3
 0.7077444145     2     2     7     7
 -0.1442500162     2     2     7    11
 0.5739004165     2     2     8     8
 0.5739004165     2     2     9     9
 0.1350163315     2     2    10     6
 0.3740356791     2     2    10    10
 -0.0156860551     2     2    11     1
 -0.0965776908     2     2    11     3
 -0.1442500162     2     2    11     7
 0.4572941162     2     2    11    11
 -0.1799032670     2     2    12     4
 -0.1251015221     2     2    12     5
 0.5565640766     2     2    12    12
 0.1251015221     2     2    13     4
 -0.1799032670     2     2    13     5
 0.5565640766     2     2    13    13
 -0.0221261369     2     3     1     2
 0.0010108698     2     3     1     6
 0.0003090514     2     3     1    10
 -0.9248090303     2     3     3     2
 0.0201269059     2     3     3     6
 0.0076413561     2     3     3    10
 0.0237166021     2     3     4     8
 -0.0090817570     2     3     4     9
 -0.0090817570     2     3     5     8
 -0.0237166021     2     3     5     9
 -0.0994646716     2     3     6     1
 0.0239219222     2     3     6     7
 -0.0051871728     2     3     6    11
 -0.1344745585     2     3     7     2
 0.0313396467     2     3     7     6
 0.0090892264     2     3     7    10
 0.0153623022     2     3     8     4
 -0.0058826596     2     3     8     5
 -0.0072733065     2     3     8    12
 0.0106892247     2     3     8    13
 -0.0058826596     2     3     9     4
 -0.0153623022     2     3     9     5
 0.0106892247     2     3     9    12
 0.0072733065     2     3     9    13
 -0.0502915871     2     3    10     1
 0.0047438500     2     3    10     7
 -0.0061683307     2     3    10    11
 0.0965776908     2     3    11     2
 -0.0098298321     2     3    11     6
 -0.0085677661     2     3    11    10
 -0.0076485467     2     3    12     8
 0.0112406969     2     3    12     9
 0.0112406969     2     3    13     8
 0.0076485467     2     3    13     9
 0.0008246894     2     4     1     8
 -0.0003157968     2     4     1     9
 0.0070940071     2     4     3     8
 -0.0027164957     2     4     3     9
 -0.7538423635     2     4     4     2
 0.0219680249     2     4     4     6
 0.0101548311     2     4     4    10
 0.0038805505     2     4     6    12
 -0.0026984656     2     4     6    13
 0.0016162128     2     4     7     8
 -0.0006188935     2     4     7     9
 0.1405734920     2     4     8     1
 -0.0153623022     2     4     8     3
 0.0002234997     2     4     8     7
 0.0031730033     2     4     8    11
 -0.0538295620     2     4     9     1
 0.0058826596     2     4     9     3
 -0.0000855844     2     4     9     7
 -0.0012150326     2     4     9    11
 0.0011143613     2     4    10    12
 -0.0007749070     2     4    10    13
 0.0010142775     2     4    11     8
 -0.0003883955     2     4    11     9
 0.1799032670     2     4    12     2
 -0.0101455001     2     4    12     6
 -0.0059200692     2     4    12    10
 -0.1251015221     2     4    13     2
 0.0070549998     2     4    13     6
 0.0041167105     2     4    13    10
 -0.0003157968     2     5     1     8
 -0.0008246894     2     5     1     9
 -0.0027164957     2     5     3     8
 -0.0070940071     2     5     3     9
 -0.7538423635     2     5     5     2
 0.0219680249     2     5     5     6
 0.0101548311     2     5     5    10
 0.0026984656     2     5     6    12
 0.0038805505     2     5     6    13
 -0.0006188935     2     5     7     8
 -0.0016162128     2     5     7     9
 -0.0538295620     2     5     8     1
 0.0058826596     2     5     8     3
 -0.0000855844     2     5     8     7
 -0.0012150326     2     5     8    11
 -0.1405734920     2     5     9     1
 0.0153623022     2     5     9     3
 -0.0002234997     2     5     9     7
 -0.0031730033     2     5     9    11
 0.0007749070     2     5    10    12
 0.0011143613     2     5    10    13
 -0.0003883955     2     5    11     8
 -0.0010142775     2     5    11     9
 0.1251015221     2     5    12     2
 -0.0070549998     2     5    12     6
 -0.0041167105     2     5    12    10
 0.1799032670     2     5    13     2
 -0.0101455001     2     5    13     6
 -0.0059200692     2     5    13    10
 -0.0140388728     2     6     1     1
 -0.0010108698     2     6     1     3
 -0.0012922349     2     6     1     7
 0.0007687882     2     6     1    11
 -0.1005010941     2     6     3     1
 -0.0201269059     2     6     3     3
 -0.0074522180     2     6     3     7
 0.0049154207     2     6     3    11
 -0.0219680249     2     6     4     4
 0.0144885488     2     6     4    12
 -0.0100750783     2     6     4    13
 -0.0219680249     2     6     5     5
 0.0100750783     2     6     5    12
 0.0144885488     2     6     5    13
 -0.6545779018     2     6     6     2
 -0.0005166715     2     6     6    10
 0.2244132918     2     6     7     1
 -0.0313396467     2     6     7     3
 -0.0232574042     2     6     7     7
 0.0176781906     2     6     7    11
 -0.0140314830     2     6     8     8
 -0.0140314830     2     6     9     9
 -0.1350163315     2     6    10     2
 0.0009451822     2     6    10    10
 -0.0183732950     2     6    11     1
 0.0098298321     2     6    11     3
 0.0068471112     2     6    11     7
 -0.0053829490     2     6    11    11
 0.0101455001     2     6    12     4
 0.0070549998     2     6    12     5
 -0.0124920887     2     6    12    12
 -0.0070549998     2     6    13     4
 0.0101455001     2     6    13     5
 -0.0124920887     2     6    13    13
 -0.0278566158     2     7     1     2
 0.0012922349     2     7     1     6
 0.0004887618     2     7     1    10
 -0.1344745585     2     7     3     2
 0.0074522180     2     7     3     6
 0.0038510129     2     7     3    10
 0.0017804264     2     7     4     8
 -0.0006817755     2     7     4     9
 -0.0006817755     2     7     5     8
 -0.0017804264     2     7     5     9
 0.2257139359     2     7     6     1
 -0.0239219222     2     7     6     3
 0.0106520637     2     7     6    11
 -0.7077444145     2     7     7     2
 0.0232574042     2     7     7     6
 0.0070292574     2     7     7    10
 -0.0002234997     2     7     8     4
 0.0000855844     2     7     8     5
 0.0036775311     2     7     8    12
 -0.0054046886     2     7     8    13
 0.0000855844     2     7     9     4
 0.0002234997     2     7     9     5
 -0.0054046886     2     7     9    12
 -0.0036775311     2     7     9    13
 0.0406483515     2     7    10     1
 -0.0047438500     2     7    10     3
 -0.0035673059     2     7    10    11
 0.1442500162     2     7    11     2
 -0.0068471112     2     7    11     6
 -0.0089852905     2     7    11    10
 0.0000934334     2     7    12     8
 -0.0001373147     2     7    12     9
 -0.0001373147     2     7    13     8
 -0.0000934334     2     7    13     9
 -0.0008246894     2     8     1     4
 0.0003157968     2     8     1     5
 0.0004228973     2     8     1    12
 -0.0006215116     2     8     1    13
 -0.0070940071     2     8     3     4
 0.0027164957     2     8     3     5
 0.0004072275     2     8     3    12
 -0.0005984824     2     8     3    13
 0.1397226660     2     8     4     1
 -0.0237166021     2     8     4     3
 -0.0017804264     2     8     4     7
 0.0021564284     2     8     4    11
 -0.0535037567     2     8     5     1
 0.0090817570     2     8     5     3
 0.0006817755     2     8     5     7
 -0.0008257574     2     8     5    11
 -0.0016162128     2     8     7     4
 0.0006188935     2     8     7     5
 0.0034689059     2     8     7    12
 -0.0050980822     2     8     7    13
 -0.5739004165     2     8     8     2
 0.0140314830     2     8     8     6
 0.0061975519     2     8     8    10
 -0.0010142775     2     8    11     4
 0.0003883955     2     8    11     5
 -0.0014618100     2     8    11    12
 0.0021483511     2     8    11    13
 -0.0408415022     2     8    12     1
 0.0076485467     2     8    12     3
 -0.0000934334     2     8    12     7
 -0.0012930106     2     8    12    11
 0.0600227685     2     8    13     1
 -0.0112406969     2     8    13     3
 0.0001373147     2     8    13     7
 0.0019002748     2     8    13    11
 0.0003157968     2     9     1     4
 0.0008246894     2     9     1     5
 -0.0006215116     2     9     1    12
 -0.0004228973     2     9     1    13
 0.0027164957     2     9     3     4
 0.0070940071     2     9     3     5
 -0.0005984824     2     9     3    12
 -0.0004072275     2     9     3    13
 -0.0535037567     2     9     4     1
 0.0090817570     2     9     4     3
 0.0006817755     2     9     4     7
 -0.0008257574     2     9     4    11
 -0.1397226660     2     9     5     1
 0.0237166021     2     9     5     3
 0.0017804264     2     9     5     7
 -0.0021564284     2     9     5    11
 0.0006188935     2     9     7     4
 0.0016162128     2     9     7     5
 -0.0050980822     2     9     7    12
 -0.0034689059     2     9     7    13
 -0.5739004165     2     9     9     2
 0.0140314830     2     9     9     6
 0.0061975519     2     9     9    10
 0.0003883955     2     9    11     4
 0.0010142775     2     9    11     5
 0.0021483511     2     9    11    12
 0.0014618100     2     9    11    13
 0.0600227685     2     9    12     1
 -0.0112406969     2     9    12     3
 0.0001373147     2     9    12     7
 0.0019002748     2     9    12    11
 0.0408415022     2     9    13     1
 -0.0076485467     2     9    13     3
 0.0000934334     2     9    13     7
 0.0012930106     2     9    13    11
 -0.0055190474     2    10     1     1
 -0.0003090514     2    10     1     3
 -0.0004887618     2    10     1     7
 0.0002814923     2    10     1    11
 -0.0505183729     2    10     3     1
 -0.0076413561     2    10     3     3
 -0.0038510129     2    10     3     7
 0.0025171323     2    10     3    11
 -0.0101548311     2    10     4     4
 0.0071383325     2    10     4    12
 -0.0049638691     2    10     4    13
 -0.0101548311     2    10     5     5
 0.0049638691     2    10     5    12
 0.0071383325     2    10     5    13
 -0.1350163315     2    10     6     2
 0.0005166715     2    10     6     6
 0.0401711688     2    10     7     1
 -0.0090892264     2    10     7     3
 -0.0070292574     2    10     7     7
 0.0056276345     2    10     7    11
 -0.0061975519     2    10     8     8
 -0.0061975519     2    10     9     9
 -0.3740356791     2    10    10     2
 -0.0009451822     2    10    10     6
 -0.0666323111     2    10    11     1
 0.0085677661     2    10    11     3
 0.0089852905     2    10    11     7
 -0.0053835726     2    10    11    11
 0.0059200692     2    10    12     4
 0.0041167105     2    10    12     5
 -0.0068074138     2    10    12    12
 -0.0041167105     2    10    13     4
 0.0059200692     2    10    13     5
 -0.0068074138     2    10    13    13
 0.0156860551     2    11     1     2
 -0.0007687882     2    11     1     6
 -0.0002814923     2    11     1    10
 0.0965776908     2    11     3     2
 -0.0049154207     2    11     3     6
 -0.0025171323     2    11     3    10
 -0.0021564284     2    11     4     8
 0.0008257574     2    11     4     9
 0.0008257574     2    11     5     8
 0.0021564284     2    11     5     9
 -0.0191239398     2    11     6     1
 0.0051871728     2    11     6     3
 -0.0106520637     2    11     6     7
 0.1442500162     2    11     7     2
 -0.0176781906     2    11     7     6
 -0.0056276345     2    11     7    10
 -0.0031730033     2    11     8     4
 0.0012150326     2    11     8     5
 -0.0001579965     2    11     8    12
 0.0002321998     2    11     8    13
 0.0012150326     2    11     9     4
 0.0031730033     2    11     9     5
 0.0002321998     2    11     9    12
 0.0001579965     2    11     9    13
 -0.0669042796     2    11    10     1
 0.0061683307     2    11    10     3
 0.0035673059     2    11    10     7
 -0.4572941162     2    11    11     2
 0.0053829490     2    11    11     6
 0.0053835726     2    11    11    10
 0.0012930106     2    11    12     8
 -0.0019002748     2    11    12     9
 -0.0019002748     2    11    13     8
 -0.0012930106     2    11    13     9
 -0.0004228973     2    12     1     8
 0.0006215116     2    12     1     9
 -0.0004072275     2    12     3     8
 0.0005984824     2    12     3     9
 0.1799032670     2    12     4     2