&FCI NORB= 13,NELEC= 14,MS2=0,
 ORBSYM=1,1,1,1,1,1,1,1,1,1,1,1,1
 ISYM=1,
&END
 0.3454514214     1     1     2     2
 -0.0024614561     1     1     2     4
 0.0071785539     1     1     2    10
 -0.0084874935     1     1     2    11
 0.6520888276     1     1     3     3
 -0.0000000015     1     1     3     4
 -0.0507859763     1     1     3     5
 -0.0000000009     1     1     3    10
 -0.0024614561     1     1     4     2
 -0.0000000015     1     1     4     3
 0.6140734730     1     1     4     4
 -0.0000000012     1     1     4     5
 0.0614618850     1     1     4    10
 0.1076899212     1     1     4    11
 -0.0507859763     1     1     5     3
 -0.0000000012     1     1     5     4
 0.6326678064     1     1     5     5
 0.0000000013     1     1     5    10
 -0.0000000012     1     1     5    11
 0.5871891186     1     1     6     6
 -0.0000000015     1     1     6     8
 0.0000000002     1     1     6     9
 0.0953444436     1     1     6    12
 0.1728621385     1     1     6    13
 0.5871891186     1     1     7     7
 -0.0000000002     1     1     7     8
 -0.0000000015     1     1     7     9
 0.1728621385     1     1     7    12
 -0.0953444436     1     1     7    13
 -0.0000000015     1     1     8     6
 -0.0000000002     1     1     8     7
 0.5976896078     1     1     8     8
 -0.0000000007     1     1     8    12
 -0.0000000010     1     1     8    13
 0.0000000002     1     1     9     6
 -0.0000000015     1     1     9     7
 0.5976896078     1     1     9     9
 -0.0000000010     1     1     9    12
 0.0000000007     1     1     9    13
 0.0071785539     1     1    10     2
 -0.0000000009     1     1    10     3
 0.0614618850     1     1    10     4
 0.0000000013     1     1    10     5
 0.6296582767     1     1    10    10
 -0.2090056193     1     1    10    11
 -0.0084874935     1     1    11     2
 0.1076899212     1     1    11     4
 -0.0000000012     1     1    11     5
 -0.2090056193     1     1    11    10
 0.5435179874     1     1    11    11
 0.0953444436     1     1    12     6
 0.1728621385     1     1    12     7
 -0.0000000007     1     1    12     8
 -0.0000000010     1     1    12     9
 0.5837879714     1     1    12    12
 0.1728621385     1     1    13     6
 -0.0953444436     1     1    13     7
 -0.0000000010     1     1    13     8
 0.0000000007     1     1    13     9
 0.5837879714     1     1    13    13
 -0.3454514214     1     2     2     1
 -0.0025530931     1     2     2     3
 0.0082995996     1     2     2     5
 0.2458370290     1     2     3     4
 0.1409662348     1     2     3    10
 -0.0119100312     1     2     3    11
 0.0024614561     1     2     4     1
 0.2458787333     1     2     4     3
 0.1933688507     1     2     4     5
 0.1934852937     1     2     5     4
 -0.2111640793     1     2     5    10
 0.1946020779     1     2     5    11
 0.2498103920     1     2     6     8
 -0.0360478650     1     2     6     9
 0.0360478650     1     2     7     8
 0.2498103920     1     2     7     9
 0.2496522807     1     2     8     6
 0.0360250494     1     2     8     7
 0.1225054918     1     2     8    12
 0.1620360892     1     2     8    13
 -0.0360250494     1     2     9     6
 0.2496522807     1     2     9     7
 0.1620360892     1     2     9    12
 -0.1225054918     1     2     9    13
 -0.0071785539     1     2    10     1
 0.1408514575     1     2    10     3
 -0.2108265370     1     2    10     5
 0.0084874935     1     2    11     1
 -0.0117968253     1     2    11     3
 0.1941946387     1     2    11     5
 0.1226189467     1     2    12     8
 0.1621861542     1     2    12     9
 0.1621861542     1     2    13     8
 -0.1226189467     1     2    13     9
 0.0025530931     1     3     2     2
 -0.0000370347     1     3     2     4
 0.0001133465     1     3     2    10
 -0.0001157719     1     3     2    11
 -0.6520888276     1     3     3     1
 0.0107200419     1     3     3     5
 -0.0000000001     1     3     3    11
 0.0000000015     1     3     4     1
 -0.2458787333     1     3     4     2
 -0.0036575372     1     3     4     4
 0.0073711142     1     3     4    10
 -0.0083092741     1     3     4    11
 0.0507859763     1     3     5     1
 -0.0220451478     1     3     5     5
 0.0000000001     1     3     5    11
 -0.0162931336     1     3     6     6
 -0.0107802822     1     3     6    12
 -0.0195449527     1     3     6    13
 -0.0162931336     1     3     7     7
 -0.0195449527     1     3     7    12
 0.0107802822     1     3     7    13
 -0.0168268581     1     3     8     8
 -0.0168268581     1     3     9     9
 0.0000000009     1     3    10     1
 -0.1408514575     1     3    10     2
 0.0084001440     1     3    10     4
 -0.0118272757     1     3    10    10
 0.0169644635     1     3    10    11
 0.0117968253     1     3    11     2
 -0.0081307112     1     3    11     4
 0.0117235031     1     3    11    10
 -0.0186536254     1     3    11    11
 -0.0062979129     1     3    12     6
 -0.0114182920     1     3    12     7
 -0.0183991617     1     3    12    12
 -0.0114182920     1     3    13     6
 0.0062979129     1     3    13     7
 -0.0183991617     1     3    13    13
 0.0024614561     1     4     2     1
 0.0000370347     1     4     2     3
 -0.0001203040     1     4     2     5
 0.0000000015     1     4     3     1
 -0.2458370290     1     4     3     2
 -0.0011961871     1     4     3    10
 0.0000222733     1     4     3    11
 -0.6140734730     1     4     4     1
 0.0036575372     1     4     4     3
 -0.0028240039     1     4     4     5
 0.0000000012     1     4     5     1
 -0.1934852937     1     4     5     2
 0.0196557348     1     4     5    10
 -0.0213285065     1     4     5    11
 -0.0156065604     1     4     6     8
 0.0022520408     1     4     6     9
 -0.0022520408     1     4     7     8
 -0.0156065604     1     4     7     9
 -0.0159243740     1     4     8     6
 -0.0022979016     1     4     8     7
 -0.0141902190     1     4     8    12
 -0.0187691797     1     4     8    13
 0.0022979016     1     4     9     6
 -0.0159243740     1     4     9     7
 -0.0187691797     1     4     9    12
 0.0141902190     1     4     9    13
 -0.0614618850     1     4    10     1
 -0.0084001440     1     4    10     3
 0.0149130698     1     4    10     5
 -0.1076899212     1     4    11     1
 0.0081307112     1     4    11     3
 -0.0131643946     1     4    11     5
 -0.0096724691     1     4    12     8
 -0.0127936229     1     4    12     9
 -0.0127936229     1     4    13     8
 0.0096724691     1     4    13     9
 -0.0082995996     1     5     2     2
 0.0001203040     1     5     2     4
 -0.0003488063     1     5     2    10
 0.0004057360     1     5     2    11
 0.0507859763     1     5     3     1
 -0.0107200419     1     5     3     3
 0.0000000001     1     5     3    11
 0.0000000012     1     5     4     1
 -0.1933688507     1     5     4     2
 0.0028240039     1     5     4     4
 0.0042524032     1     5     4    10
 -0.0076735604     1     5     4    11
 -0.6326678064     1     5     5     1
 0.0220451478     1     5     5     3
 -0.0085910119     1     5     6     6
 -0.0029283720     1     5     6    12
 -0.0053092203     1     5     6    13
 -0.0085910119     1     5     7     7
 -0.0053092203     1     5     7    12
 0.0029283720     1     5     7    13
 -0.0075241650     1     5     8     8
 -0.0075241650     1     5     9     9
 -0.0000000013     1     5    10     1
 0.2108265370     1     5    10     2
 -0.0149130698     1     5    10     4
 -0.0164916219     1     5    10    10
 0.0066829298     1     5    10    11
 0.0000000012     1     5    11     1
 -0.1941946387     1     5    11     2
 0.0131643946     1     5    11     4
 0.0139470375     1     5    11    10
 -0.0012146331     1     5    11    11
 -0.0023013897     1     5    12     6
 -0.0041724838     1     5    12     7
 -0.0083550616     1     5    12    12
 -0.0041724838     1     5    13     6
 0.0023013897     1     5    13     7
 -0.0083550616     1     5    13    13
 0.0001654203     1     6     2     8
 -0.0000238703     1     6     2     9
 -0.0042694442     1     6     3    12
 -0.0077406215     1     6     3    13
 0.0006203385     1     6     4     8
 -0.0000895155     1     6     4     9
 -0.0005704471     1     6     5    12
 -0.0010342366     1     6     5    13
 -0.5871891186     1     6     6     1
 0.0162931336     1     6     6     3
 0.0085910119     1     6     6     5
 0.0000000015     1     6     8     1
 -0.2496522807     1     6     8     2
 0.0159243740     1     6     8     4
 0.0109208535     1     6     8    10
 -0.0006124277     1     6     8    11
 -0.0000000002     1     6     9     1
 0.0360250494     1     6     9     2
 -0.0022979016     1     6     9     4
 -0.0015758890     1     6     9    10
 0.0000883738     1     6     9    11
 0.0001114573     1     6    10     8
 -0.0000160834     1     6    10     9
 0.0001333122     1     6    11     8
 -0.0000192371     1     6    11     9
 -0.0953444436     1     6    12     1
 0.0062979129     1     6    12     3
 0.0023013897     1     6    12     5
 -0.1728621385     1     6    13     1
 0.0114182920     1     6    13     3
 0.0041724838     1     6    13     5
 0.0000238703     1     7     2     8
 0.0001654203     1     7     2     9
 -0.0077406215     1     7     3    12
 0.0042694442     1     7     3    13
 0.0000895155     1     7     4     8
 0.0006203385     1     7     4     9
 -0.0010342366     1     7     5    12
 0.0005704471     1     7     5    13
 -0.5871891186     1     7     7     1
 0.0162931336     1     7     7     3
 0.0085910119     1     7     7     5
 0.0000000002     1     7     8     1
 -0.0360250494     1     7     8     2
 0.0022979016     1     7     8     4
 0.0015758890     1     7     8    10
 -0.0000883738     1     7     8    11
 0.0000000015     1     7     9     1
 -0.2496522807     1     7     9     2
 0.0159243740     1     7     9     4
 0.0109208535     1     7     9    10
 -0.0006124277     1     7     9    11
 0.0000160834     1     7    10     8
 0.0001114573     1     7    10     9
 0.0000192371     1     7    11     8
 0.0001333122     1     7    11     9
 -0.1728621385     1     7    12     1
 0.0114182920     1     7    12     3
 0.0041724838     1     7    12     5
 0.0953444436     1     7    13     1
 -0.0062979129     1     7    13     3
 -0.0023013897     1     7    13     5
 -0.0001654203     1     8     2     6
 -0.0000238703     1     8     2     7
 -0.0001138498     1     8     2    12
 -0.0001505873     1     8     2    13
 -0.0006203385     1     8     4     6
 -0.0000895155     1     8     4     7
 -0.0042230205     1     8     4    12
 -0.0055857228     1     8     4    13
 0.0000000015     1     8     6     1
 -0.2498103920     1     8     6     2
 0.0156065604     1     8     6     4
 0.0109536282     1     8     6    10
 -0.0008149732     1     8     6    11
 0.0000000002     1     8     7     1
 -0.0360478650     1     8     7     2
 0.0022520408     1     8     7     4
 0.0015806184     1     8     7    10
 -0.0001176014     1     8     7    11
 -0.5976896078     1     8     8     1
 0.0168268581     1     8     8     3
 0.0075241650     1     8     8     5
 -0.0001114573     1     8    10     6
 -0.0000160834     1     8    10     7
 -0.0015872468     1     8    10    12
 -0.0020994264     1     8    10    13
 -0.0001333122     1     8    11     6
 -0.0000192371     1     8    11     7
 0.0003824350     1     8    11    12
 0.0005058407     1     8    11    13
 0.0000000007     1     8    12     1
 -0.1226189467     1     8    12     2
 0.0096724691     1     8    12     4
 0.0056481897     1     8    12    10
 0.0020802098     1     8    12    11
 0.0000000010     1     8    13     1
 -0.1621861542     1     8    13     2
 0.0127936229     1     8    13     4
 0.0074707717     1     8    13    10
 0.0027514609     1     8    13    11
 0.0000238703     1     9     2     6
 -0.0001654203     1     9     2     7
 -0.0001505873     1     9     2    12
 0.0001138498     1     9     2    13
 0.0000895155     1     9     4     6
 -0.0006203385     1     9     4     7
 -0.0055857228     1     9     4    12
 0.0042230205     1     9     4    13
 -0.0000000002     1     9     6     1
 0.0360478650     1     9     6     2
 -0.0022520408     1     9     6     4
 -0.0015806184     1     9     6    10
 0.0001176014     1     9     6    11
 0.0000000015     1     9     7     1
 -0.2498103920     1     9     7     2
 0.0156065604     1     9     7     4
 0.0109536282     1     9     7    10
 -0.0008149732     1     9     7    11
 -0.5976896078     1     9     9     1
 0.0168268581     1     9     9     3
 0.0075241650     1     9     9     5
 0.0000160834     1     9    10     6
 -0.0001114573     1     9    10     7
 -0.0020994264     1     9    10    12
 0.0015872468     1     9    10    13
 0.0000192371     1     9    11     6
 -0.0001333122     1     9    11     7
 0.0005058407     1     9    11    12
 -0.0003824350     1     9    11    13
 0.0000000010     1     9    12     1
 -0.1621861542     1     9    12     2
 0.0127936229     1     9    12     4
 0.0074707717     1     9    12    10
 0.0027514609     1     9    12    11
 -0.0000000007     1     9    13     1
 0.1226189467     1     9    13     2
 -0.0096724691     1     9    13     4
 -0.0056481897     1     9    13    10
 -0.0020802098     1     9    13    11
 -0.0071785539     1    10     2     1
 -0.0001133465     1    10     2     3
 0.0003488063     1    10     2     5
 0.0000000009     1    10     3     1
 -0.1409662348     1    10     3     2
 0.0011961871     1    10     3     4
 0.0051632967     1    10     3    11
 -0.0614618850     1    10     4     1
 -0.0073711142     1    10     4     3
 -0.0042524032     1    10     4     5
 -0.0000000013     1    10     5     1
 0.2111640793     1    10     5     2
 -0.0196557348     1    10     5     4
 -0.0074105745     1    10     5    11
 -0.0109536282     1    10     6     8
 0.0015806184     1    10     6     9
 -0.0015806184     1    10     7     8
 -0.0109536282     1    10     7     9
 -0.0109208535     1    10     8     6
 -0.0015758890     1    10     8     7
 -0.0073014772     1    10     8    12
 -0.0096575492     1    10     8    13
 0.0015758890     1    10     9     6
 -0.0109208535     1    10     9     7
 -0.0096575492     1    10     9    12
 0.0073014772     1    10     9    13
 -0.6296582767     1    10    10     1
 0.0118272757     1    10    10     3
 0.0164916219     1    10    10     5
 0.2090056193     1    10    11     1
 -0.0117235031     1    10    11     3
 -0.0139470375     1    10    11     5
 -0.0056481897     1    10    12     8
 -0.0074707717     1    10    12     9
 -0.0074707717     1    10    13     8
 0.0056481897     1    10    13     9
 0.0084874935     1    11     2     1
 0.0001157719     1    11     2     3
 -0.0004057360     1    11     2     5
 0.0119100312     1    11     3     2
 0.0000000001     1    11     3     3
 -0.0000222733     1    11     3     4
 -0.0000000001     1    11     3     5
 -0.0051632967     1    11     3    10
 -0.1076899212     1    11     4     1
 0.0083092741     1    11     4     3
 0.0076735604     1    11     4     5
 0.0000000012     1    11     5     1
 -0.1946020779     1    11     5     2
 -0.0000000001     1    11     5     3
 0.0213285065     1    11     5     4
 0.0074105745     1    11     5    10
 0.0008149732     1    11     6     8
 -0.0001176014     1    11     6     9
 0.0001176014     1    11     7     8
 0.0008149732     1    11     7     9
 0.0006124277     1    11     8     6
 0.0000883738     1    11     8     7
 -0.0017128615     1    11     8    12
 -0.0022655750     1    11     8    13
 -0.0000883738     1    11     9     6
 0.0006124277     1    11     9     7
 -0.0022655750     1    11     9    12
 0.0017128615     1    11     9    13
 0.2090056193     1    11    10     1
 -0.0169644635     1    11    10     3
 -0.0066829298     1    11    10     5
 -0.5435179874     1    11    11     1
 0.0186536254     1    11    11     3
 0.0012146331     1    11    11     5
 -0.0020802098     1    11    12     8
 -0.0027514609     1    11    12     9
 -0.0027514609     1    11    13     8
 0.0020802098     1    11    13     9
 0.0001138498     1    12     2     8
 0.0001505873     1    12     2     9
 0.0042694442     1    12     3     6
 0.0077406215     1    12     3     7
 0.0042230205     1    12     4     8
 0.0055857228     1    12     4     9
 0.0005704471     1    12     5     6
 0.0010342366     1    12     5     7
 -0.0953444436     1    12     6     1
 0.0107802822     1    12     6     3
 0.0029283720     1    12     6     5
 -0.1728621385     1    12     7     1
 0.0195449527     1    12     7     3
 0.0053092203     1    12     7     5
 0.0000000007     1    12     8     1
 -0.1225054918     1    12     8     2
 0.0141902190     1    12     8     4
 0.0073014772     1    12     8    10
 0.0017128615     1    12     8    11
 0.0000000010     1    12     9     1
 -0.1620360892     1    12     9     2
 0.0187691797     1    12     9     4
 0.0096575492     1    12     9    10
 0.0022655750     1    12     9    11
 0.0015872468     1    12    10     8
 0.0020994264     1    12    10     9
 -0.0003824350     1    12    11     8
 -0.0005058407     1    12    11     9
 -0.5837879714     1    12    12     1
 0.0183991617     1    12    12     3
 0.0083550616     1    12    12     5
 0.0001505873     1    13     2     8
 -0.0001138498     1    13     2     9
 0.0077406215     1    13     3     6
 -0.0042694442     1    13     3     7
 0.0055857228     1    13     4     8
 -0.0042230205     1    13     4     9
 0.0010342366     1    13     5     6
 -0.0005704471     1    13     5     7
 -0.1728621385     1    13     6     1
 0.0195449527     1    13     6     3
 0.0053092203     1    13     6     5
 0.0953444436     1    13     7     1
 -0.0107802822     1    13     7     3
 -0.0029283720     1    13     7     5
 0.0000000010     1    13     8     1
 -0.1620360892     1    13     8     2
 0.0187691797     1    13     8     4
 0.0096575492     1    13     8    10
 0.0022655750     1    13     8    11
 -0.0000000007     1    13     9     1
 0.1225054918     1    13     9     2
 -0.0141902190     1    13     9     4
 -0.0073014772     1    13     9    10
 -0.0017128615     1    13     9    11
 0.0020994264     1    13    10     8
 -0.0015872468     1    13    10     9
 -0.0005058407     1    13    11     8
 0.0003824350     1    13    11     9
 -0.5837879714     1    13    13     1
 0.0183991617     1    13    13     3
 0.0083550616     1    13    13     5
 -0.3454514214     2     1     1     2
 0.0024614561     2     1     1     4
 -0.0071785539     2     1     1    10
 0.0084874935     2     1     1    11
 -0.0025530931     2     1     3     2
 0.2458787333     2     1     3     4
 0.1408514575     2     1     3    10
 -0.0117968253     2     1     3    11
 0.2458370290     2     1     4     3
 0.1934852937     2     1     4     5
 0.0082995996     2     1     5     2
 0.1933688507     2     1     5     4
 -0.2108265370     2     1     5    10
 0.1941946387     2     1     5    11
 0.2496522807     2     1     6     8
 -0.0360250494     2     1     6     9
 0.0360250494     2     1     7     8
 0.2496522807     2     1     7     9
 0.2498103920     2     1     8     6
 0.0360478650     2     1     8     7
 0.1226189467     2     1     8    12
 0.1621861542     2     1     8    13
 -0.0360478650     2     1     9     6
 0.2498103920     2     1     9     7
 0.1621861542     2     1     9    12
 -0.1226189467     2     1     9    13
 0.1409662348     2     1    10     3
 -0.2111640793     2     1    10     5
 -0.0119100312     2     1    11     3
 0.1946020779     2     1    11     5
 0.1225054918     2     1    12     8
 0.1620360892     2     1    12     9
 0.1620360892     2     1    13     8
 -0.1225054918     2     1    13     9
 0.3454514214     2     2     1     1
 0.0025530931     2     2     1     3
 -0.0082995996     2     2     1     5
 0.0025530931     2     2     3     1
 0.6521158008     2     2     3     3
 0.0000000015     2     2     3     4
 -0.0508890224     2     2     3     5
 0.0000000009     2     2     3    10
 -0.0000000001     2     2     3    11
 0.0000000015     2     2     4     3
 0.6140392338     2     2     4     4
 0.0000000012     2     2     4     5
 0.0615441763     2     2     4    10
 0.1075655149     2     2     4    11
 -0.0082995996     2     2     5     1
 -0.0508890224     2     2     5     3
 0.0000000012     2     2     5     4
 0.6330696886     2     2     5     5
 -0.0000000012     2     2     5    10
 0.0000000012     2     2     5    11
 0.5873670336     2     2     6     6
 0.0000000015     2     2     6     8
 -0.0000000002     2     2     6     9
 0.0954407155     2     2     6    12
 0.1730366823     2     2     6    13
 0.5873670336     2     2     7     7
 0.0000000002     2     2     7     8
 0.0000000015     2     2     7     9
 0.1730366823     2     2     7    12
 -0.0954407155     2     2     7    13
 0.0000000015     2     2     8     6
 0.0000000002     2     2     8     7
 0.5975465052     2     2     8     8
 0.0000000007     2     2     8    12
 0.0000000010     2     2     8    13
 -0.0000000002     2     2     9     6
 0.0000000015     2     2     9     7
 0.5975465052     2     2     9     9
 0.0000000010     2     2     9    12
 -0.0000000007     2     2     9    13
 0.0000000009     2     2    10     3
 0.0615441763     2     2    10     4
 -0.0000000012     2     2    10     5
 0.6293486069     2     2    10    10
 -0.2086669636     2     2    10    11
 -0.0000000001     2     2    11     3
 0.1075655149     2     2    11     4
 0.0000000012     2     2    11     5
 -0.2086669636     2     2    11    10
 0.5431301629     2     2    11    11
 0.0954407155     2     2    12     6
 0.1730366823     2     2    12     7
 0.0000000007     2     2    12     8
 0.0000000010     2     2    12     9
 0.5840320539     2     2    12    12
 0.1730366823     2     2    13     6
 -0.0954407155     2     2    13     7
 0.0000000010     2     2    13     8
 -0.0000000007     2     2    13     9
 0.5840320539     2     2    13    13
 -0.0025530931     2     3     1     2
 0.0000370347     2     3     1     4
 -0.0001133465     2     3     1    10
 0.0001157719     2     3     1    11
 -0.6521158008     2     3     3     2
 0.0034893528     2     3     3     4
 -0.0108063393     2     3     3    10
 0.0138404211     2     3     3    11
 -0.2458370290     2     3     4     1
 -0.0000000015     2     3     4     2
 -0.0096787651     2     3     4     5
 0.0508890224     2     3     5     2
 -0.0119383213     2     3     5     4
 0.0189319269     2     3     5    10
 -0.0246314862     2     3     5    11
 -0.0191426382     2     3     6     8
 0.0027623000     2     3     6     9
 -0.0027623000     2     3     7     8
 -0.0191426382     2     3     7     9
 -0.0157579705     2     3     8     6
 -0.0022738893     2     3     8     7
 -0.0128775635     2     3     8    12
 -0.0170329509     2     3     8    13
 0.0022738893     2     3     9     6
 -0.0157579705     2     3     9     7
 -0.0170329509     2     3     9    12
 0.0128775635     2     3     9    13
 -0.1409662348     2     3    10     1
 -0.0000000009     2     3    10     2
 0.0153908300     2     3    10     5
 0.0119100312     2     3    11     1
 0.0000000001     2     3    11     2
 -0.0153499681     2     3    11     5
 -0.0094896064     2     3    12     8
 -0.0125517533     2     3    12     9
 -0.0125517533     2     3    13     8
 0.0094896064     2     3    13     9
 -0.0024614561     2     4     1     1
 -0.0000370347     2     4     1     3
 0.0001203040     2     4     1     5
 -0.2458787333     2     4     3     1
 -0.0000000015     2     4     3     2
 -0.0034893528     2     4     3     3
 0.0022442040     2     4     3     5
 -0.6140392338     2     4     4     2
 0.0038425856     2     4     4    10
 -0.0056081535     2     4     4    11
 -0.1933688507     2     4     5     1
 -0.0000000012     2     4     5     2
 0.0119383213     2     4     5     3
 -0.0201589662     2     4     5     5
 0.0000000001     2     4     5    10
 -0.0000000001     2     4     5    11
 -0.0174840737     2     4     6     6
 -0.0101754893     2     4     6    12
 -0.0184484463     2     4     6    13
 -0.0174840737     2     4     7     7
 -0.0184484463     2     4     7    12
 0.0101754893     2     4     7    13
 -0.0201626486     2     4     8     8
 -0.0201626486     2     4     9     9
 -0.0615441763     2     4    10     2
 -0.0204442485     2     4    10    10
 0.0200790346     2     4    10    11
 -0.1075655149     2     4    11     2
 0.0176959867     2     4    11    10
 -0.0170200177     2     4    11    11
 -0.0069906515     2     4    12     6
 -0.0126742463     2     4    12     7
 -0.0213297356     2     4    12    12
 -0.0126742463     2     4    13     6
 0.0069906515     2     4    13     7
 -0.0213297356     2     4    13    13
 0.0082995996     2     5     1     2
 -0.0001203040     2     5     1     4
 0.0003488063     2     5     1    10
 -0.0004057360     2     5     1    11
 0.0508890224     2     5     3     2
 -0.0022442040     2     5     3     4
 0.0031181864     2     5     3    10
 -0.0088455067     2     5     3    11
 -0.1934852937     2     5     4     1
 -0.0000000012     2     5     4     2
 0.0096787651     2     5     4     3
 0.0000000001     2     5     4    10
 -0.0000000001     2     5     4    11
 -0.6330696886     2     5     5     2
 0.0201589662     2     5     5     4
 0.0049304713     2     5     5    10
 0.0017927785     2     5     5    11
 -0.0007963908     2     5     6     8
 0.0001149199     2     5     6     9
 -0.0001149199     2     5     7     8
 -0.0007963908     2     5     7     9
 -0.0018055311     2     5     8     6
 -0.0002605398     2     5     8     7
 -0.0036241291     2     5     8    12
 -0.0047935785     2     5     8    13
 0.0002605398     2     5     9     6
 -0.0018055311     2     5     9     7
 -0.0047935785     2     5     9    12
 0.0036241291     2     5     9    13
 0.2111640793     2     5    10     1
 0.0000000012     2     5    10     2
 -0.0153908300     2     5    10     3
 -0.1946020779     2     5    11     1
 -0.0000000012     2     5    11     2
 0.0153499681     2     5    11     3
 -0.0019263027     2     5    12     8
 -0.0025478902     2     5    12     9
 -0.0025478902     2     5    13     8
 0.0019263027     2     5    13     9
 -0.0001654203     2     6     1     8
 0.0000238703     2     6     1     9
 -0.0030510389     2     6     3     8
 0.0004402677     2     6     3     9
 -0.0029464924     2     6     4    12
 -0.0053420731     2     6     4    13
 0.0010850244     2     6     5     8
 -0.0001565700     2     6     5     9
 -0.5873670336     2     6     6     2
 0.0174840737     2     6     6     4
 0.0033568652     2     6     6    10
 0.0074587468     2     6     6    11
 -0.2498103920     2     6     8     1
 -0.0000000015     2     6     8     2
 0.0157579705     2     6     8     3
 0.0018055311     2     6     8     5
 0.0360478650     2     6     9     1
 0.0000000002     2     6     9     2
 -0.0022738893     2     6     9     3
 -0.0002605398     2     6     9     5
 -0.0011762685     2     6    10    12
 -0.0021326076     2     6    10    13
 0.0003822866     2     6    11    12
 0.0006930964     2     6    11    13
 -0.0954407155     2     6    12     2
 0.0069906515     2     6    12     4
 0.0033665633     2     6    12    10
 0.0024316534     2     6    12    11
 -0.1730366823     2     6    13     2
 0.0126742463     2     6    13     4
 0.0061036734     2     6    13    10
 0.0044086556     2     6    13    11
 -0.0000238703     2     7     1     8
 -0.0001654203     2     7     1     9
 -0.0004402677     2     7     3     8
 -0.0030510389     2     7     3     9
 -0.0053420731     2     7     4    12
 0.0029464924     2     7     4    13
 0.0001565700     2     7     5     8
 0.0010850244     2     7     5     9
 -0.5873670336     2     7     7     2
 0.0174840737     2     7     7     4
 0.0033568652     2     7     7    10
 0.0074587468     2     7     7    11
 -0.0360478650     2     7     8     1
 -0.0000000002     2     7     8     2
 0.0022738893     2     7     8     3
 0.0002605398     2     7     8     5
 -0.2498103920     2     7     9     1
 -0.0000000015     2     7     9     2
 0.0157579705     2     7     9     3
 0.0018055311     2     7     9     5
 -0.0021326076     2     7    10    12
 0.0011762685     2     7    10    13
 0.0006930964     2     7    11    12
 -0.0003822866     2     7    11    13
 -0.1730366823     2     7    12     2
 0.0126742463     2     7    12     4
 0.0061036734     2     7    12    10
 0.0044086556     2     7    12    11
 0.0954407155     2     7    13     2
 -0.0069906515     2     7    13     4
 -0.0033665633     2     7    13    10
 -0.0024316534     2     7    13    11
 0.0001654203     2     8     1     6
 0.0000238703     2     8     1     7
 0.0001138498     2     8     1    12
 0.0001505873     2     8     1    13
 0.0030510389     2     8     3     6
 0.0004402677     2     8     3     7
 -0.0033342933     2     8     3    12
 -0.0044102173     2     8     3    13
 -0.0010850244     2     8     5     6
 -0.0001565700     2     8     5     7
 -0.0016447335     2     8     5    12
 -0.0021754631     2     8     5    13
 -0.2496522807     2     8     6     1
 -0.0000000015     2     8     6     2
 0.0191426382     2     8     6     3
 0.0007963908     2     8     6     5
 -0.0360250494     2     8     7     1
 -0.0000000002     2     8     7     2
 0.0027623000     2     8     7     3
 0.0001149199     2     8     7     5
 -0.5975465052     2     8     8     2
 0.0201626486     2     8     8     4
 0.0075226310     2     8     8    10
 0.0046704898     2     8     8    11
 -0.1225054918     2     8    12     1