&FCI NORB= 13,NELEC= 14,MS2=0,
 ORBSYM=1,1,1,1,1,1,1,1,1,1,1,1,1
 ISYM=1,
&END
 0.3720374253     1     1     2     2
 -0.0032962862     1     1     2     4
 0.0074238386     1     1     2    10
 -0.0104464000     1     1     2    11
 0.6794056027     1     1     3     3
 -0.0000000011     1     1     3     4
 -0.0620120384     1     1     3     5
 -0.0000000007     1     1     3    10
 0.0000000002     1     1     3    11
 -0.0032962862     1     1     4     2
 -0.0000000011     1     1     4     3
 0.6191783560     1     1     4     4
 -0.0000000010     1     1     4     5
 0.0702095391     1     1     4    10
 0.1063541121     1     1     4    11
 -0.0620120384     1     1     5     3
 -0.0000000010     1     1     5     4
 0.6436209364     1     1     5     5
 0.0000000009     1     1     5    10
 -0.0000000010     1     1     5    11
 0.6024808264     1     1     6     6
 -0.0000000009     1     1     6     8
 -0.0000000006     1     1     6     9
 0.0970215439     1     1     6    12
 0.1752925351     1     1     6    13
 0.6024808264     1     1     7     7
 0.0000000006     1     1     7     8
 -0.0000000009     1     1     7     9
 0.1752925351     1     1     7    12
 -0.0970215439     1     1     7    13
 -0.0000000009     1     1     8     6
 0.0000000006     1     1     8     7
 0.6033244531     1     1     8     8
 0.0000000001     1     1     8    12
 -0.0000000009     1     1     8    13
 -0.0000000006     1     1     9     6
 -0.0000000009     1     1     9     7
 0.6033244531     1     1     9     9
 -0.0000000009     1     1     9    12
 -0.0000000001     1     1     9    13
 0.0074238386     1     1    10     2
 -0.0000000007     1     1    10     3
 0.0702095391     1     1    10     4
 0.0000000009     1     1    10     5
 0.6048412288     1     1    10    10
 -0.2191247696     1     1    10    11
 -0.0104464000     1     1    11     2
 0.0000000002     1     1    11     3
 0.1063541121     1     1    11     4
 -0.0000000010     1     1    11     5
 -0.2191247696     1     1    11    10
 0.5810850664     1     1    11    11
 0.0970215439     1     1    12     6
 0.1752925351     1     1    12     7
 0.0000000001     1     1    12     8
 -0.0000000009     1     1    12     9
 0.5840901201     1     1    12    12
 0.1752925351     1     1    13     6
 -0.0970215439     1     1    13     7
 -0.0000000009     1     1    13     8
 -0.0000000001     1     1    13     9
 0.5840901201     1     1    13    13
 -0.3720374253     1     2     2     1
 -0.0036089581     1     2     2     3
 0.0096812580     1     2     2     5
 -0.0000000001     1     2     2    11
 0.2214729670     1     2     3     4
 0.1508781738     1     2     3    10
 -0.0389242403     1     2     3    11
 0.0032962862     1     2     4     1
 0.2215431617     1     2     4     3
 0.2100400462     1     2     4     5
 0.2102089302     1     2     5     4
 -0.1753030477     1     2     5    10
 0.2057912277     1     2     5    11
 0.2053301740     1     2     6     8
 0.1283017844     1     2     6     9
 -0.1283017844     1     2     7     8
 0.2053301740     1     2     7     9
 0.2051563198     1     2     8     6
 -0.1281931507     1     2     8     7
 -0.0100918423     1     2     8    12
 0.1902988814     1     2     8    13
 0.1281931507     1     2     9     6
 0.2051563198     1     2     9     7
 0.1902988814     1     2     9    12
 0.0100918423     1     2     9    13
 -0.0074238386     1     2    10     1
 0.1507250608     1     2    10     3
 -0.1749282329     1     2    10     5
 0.0104464000     1     2    11     1
 -0.0387409309     1     2    11     3
 0.2052506934     1     2    11     5
 -0.0101043010     1     2    12     8
 0.1905338118     1     2    12     9
 0.1905338118     1     2    13     8
 0.0101043010     1     2    13     9
 0.0036089581     1     3     2     2
 -0.0000646665     1     3     2     4
 0.0001509512     1     3     2    10
 -0.0001882033     1     3     2    11
 -0.6794056027     1     3     3     1
 0.0129767413     1     3     3     5
 0.0000000011     1     3     4     1
 -0.2215431617     1     3     4     2
 -0.0048579153     1     3     4     4
 0.0071453788     1     3     4    10
 -0.0098147139     1     3     4    11
 0.0620120384     1     3     5     1
 -0.0225463746     1     3     5     5
 -0.0162186509     1     3     6     6
 -0.0106960214     1     3     6    12
 -0.0193249109     1     3     6    13
 -0.0162186509     1     3     7     7
 -0.0193249109     1     3     7    12
 0.0106960214     1     3     7    13
 -0.0162680738     1     3     8     8
 -0.0162680738     1     3     9     9
 0.0000000007     1     3    10     1
 -0.1507250608     1     3    10     2
 0.0086913197     1     3    10     4
 -0.0081286971     1     3    10    10
 0.0149389273     1     3    10    11
 -0.0000000002     1     3    11     1
 0.0387409309     1     3    11     2
 -0.0102308792     1     3    11     4
 0.0098944041     1     3    11    10
 -0.0204891054     1     3    11    11
 -0.0061804850     1     3    12     6
 -0.0111665186     1     3    12     7
 -0.0176590125     1     3    12    12
 -0.0111665186     1     3    13     6
 0.0061804850     1     3    13     7
 -0.0176590125     1     3    13    13
 0.0032962862     1     4     2     1
 0.0000646665     1     4     2     3
 -0.0001736146     1     4     2     5
 0.0000000011     1     4     3     1
 -0.2214729670     1     4     3     2
 -0.0017557228     1     4     3    10
 0.0006764045     1     4     3    11
 -0.6191783560     1     4     4     1
 0.0048579153     1     4     4     3
 -0.0030129761     1     4     4     5
 0.0000000010     1     4     5     1
 -0.2102089302     1     4     5     2
 0.0182072050     1     4     5    10
 -0.0226620785     1     4     5    11
 -0.0127290511     1     4     6     8
 -0.0079538235     1     4     6     9
 0.0079538235     1     4     7     8
 -0.0127290511     1     4     7     9
 -0.0132649637     1     4     8     6
 0.0082886917     1     4     8     7
 0.0012105205     1     4     8    12
 -0.0228264277     1     4     8    13
 -0.0082886917     1     4     9     6
 -0.0132649637     1     4     9     7
 -0.0228264277     1     4     9    12
 -0.0012105205     1     4     9    13
 -0.0702095391     1     4    10     1
 -0.0086913197     1     4    10     3
 0.0128316312     1     4    10     5
 -0.1063541121     1     4    11     1
 0.0102308792     1     4    11     3
 -0.0135153214     1     4    11     5
 0.0008036498     1     4    12     8
 -0.0151541863     1     4    12     9
 -0.0151541863     1     4    13     8
 -0.0008036498     1     4    13     9
 -0.0096812580     1     5     2     2
 0.0001736146     1     5     2     4
 -0.0003907128     1     5     2    10
 0.0005423347     1     5     2    11
 0.0620120384     1     5     3     1
 -0.0129767413     1     5     3     3
 0.0000000010     1     5     4     1
 -0.2100400462     1     5     4     2
 0.0030129761     1     5     4     4
 0.0049189134     1     5     4    10
 -0.0086359552     1     5     4    11
 -0.6436209364     1     5     5     1
 0.0225463746     1     5     5     3
 -0.0098278328     1     5     6     6
 -0.0035765483     1     5     6    12
 -0.0064618866     1     5     6    13
 -0.0098278328     1     5     7     7
 -0.0064618866     1     5     7    12
 0.0035765483     1     5     7    13
 -0.0081866447     1     5     8     8
 -0.0081866447     1     5     9     9
 -0.0000000009     1     5    10     1
 0.1749282329     1     5    10     2
 -0.0128316312     1     5    10     4
 -0.0156369199     1     5    10    10
 0.0087840231     1     5    10    11
 0.0000000010     1     5    11     1
 -0.2052506934     1     5    11     2
 0.0135153214     1     5    11     4
 0.0163902594     1     5    11    10
 -0.0044493462     1     5    11    11
 -0.0025813078     1     5    12     6
 -0.0046637474     1     5    12     7
 -0.0086442014     1     5    12    12
 -0.0046637474     1     5    13     6
 0.0025813078     1     5    13     7
 -0.0086442014     1     5    13    13
 0.0001794779     1     6     2     8
 0.0001121478     1     6     2     9
 -0.0043049334     1     6     3    12
 -0.0077778878     1     6     3    13
 0.0008058535     1     6     4     8
 0.0005035424     1     6     4     9
 -0.0009334206     1     6     5    12
 -0.0016864466     1     6     5    13
 -0.6024808264     1     6     6     1
 0.0162186509     1     6     6     3
 0.0098278328     1     6     6     5
 0.0000000009     1     6     8     1
 -0.2051563198     1     6     8     2
 0.0132649637     1     6     8     4
 0.0102149913     1     6     8    10
 -0.0021591434     1     6     8    11
 0.0000000006     1     6     9     1
 -0.1281931507     1     6     9     2
 0.0082886917     1     6     9     4
 0.0063828982     1     6     9    10
 -0.0013491536     1     6     9    11
 0.0002157538     1     6    10     8
 0.0001348150     1     6    10     9
 0.0000789310     1     6    11     8
 0.0000493205     1     6    11     9
 -0.0970215439     1     6    12     1
 0.0061804850     1     6    12     3
 0.0025813078     1     6    12     5
 -0.1752925351     1     6    13     1
 0.0111665186     1     6    13     3
 0.0046637474     1     6    13     5
 -0.0001121478     1     7     2     8
 0.0001794779     1     7     2     9
 -0.0077778878     1     7     3    12
 0.0043049334     1     7     3    13
 -0.0005035424     1     7     4     8
 0.0008058535     1     7     4     9
 -0.0016864466     1     7     5    12
 0.0009334206     1     7     5    13
 -0.6024808264     1     7     7     1
 0.0162186509     1     7     7     3
 0.0098278328     1     7     7     5
 -0.0000000006     1     7     8     1
 0.1281931507     1     7     8     2
 -0.0082886917     1     7     8     4
 -0.0063828982     1     7     8    10
 0.0013491536     1     7     8    11
 0.0000000009     1     7     9     1
 -0.2051563198     1     7     9     2
 0.0132649637     1     7     9     4
 0.0102149913     1     7     9    10
 -0.0021591434     1     7     9    11
 -0.0001348150     1     7    10     8
 0.0002157538     1     7    10     9
 -0.0000493205     1     7    11     8
 0.0000789310     1     7    11     9
 -0.1752925351     1     7    12     1
 0.0111665186     1     7    12     3
 0.0046637474     1     7    12     5
 0.0970215439     1     7    13     1
 -0.0061804850     1     7    13     3
 -0.0025813078     1     7    13     5
 -0.0001794779     1     8     2     6
 0.0001121478     1     8     2     7
 0.0000125259     1     8     2    12
 -0.0002361968     1     8     2    13
 -0.0008058535     1     8     4     6
 0.0005035424     1     8     4     7
 0.0003807877     1     8     4    12
 -0.0071804005     1     8     4    13
 0.0000000009     1     8     6     1
 -0.2053301740     1     8     6     2
 0.0127290511     1     8     6     4
 0.0100859794     1     8     6    10
 -0.0022999130     1     8     6    11
 -0.0000000006     1     8     7     1
 0.1283017844     1     8     7     2
 -0.0079538235     1     8     7     4
 -0.0063022844     1     8     7    10
 0.0014371143     1     8     7    11
 -0.6033244531     1     8     8     1
 0.0162680738     1     8     8     3
 0.0081866447     1     8     8     5
 -0.0002157538     1     8    10     6
 0.0001348150     1     8    10     7
 0.0001487706     1     8    10    12
 -0.0028053221     1     8    10    13
 -0.0000789310     1     8    11     6
 0.0000493205     1     8    11     7
 -0.0000462709     1     8    11    12
 0.0008725176     1     8    11    13
 -0.0000000001     1     8    12     1
 0.0101043010     1     8    12     2
 -0.0008036498     1     8    12     4
 -0.0005345340     1     8    12    10
 -0.0001058356     1     8    12    11
 0.0000000009     1     8    13     1
 -0.1905338118     1     8    13     2
 0.0151541863     1     8    13     4
 0.0100795492     1     8    13    10
 0.0019957090     1     8    13    11
 -0.0001121478     1     9     2     6
 -0.0001794779     1     9     2     7
 -0.0002361968     1     9     2    12
 -0.0000125259     1     9     2    13
 -0.0005035424     1     9     4     6
 -0.0008058535     1     9     4     7
 -0.0071804005     1     9     4    12
 -0.0003807877     1     9     4    13
 0.0000000006     1     9     6     1
 -0.1283017844     1     9     6     2
 0.0079538235     1     9     6     4
 0.0063022844     1     9     6    10
 -0.0014371143     1     9     6    11
 0.0000000009     1     9     7     1
 -0.2053301740     1     9     7     2
 0.0127290511     1     9     7     4
 0.0100859794     1     9     7    10
 -0.0022999130     1     9     7    11
 -0.6033244531     1     9     9     1
 0.0162680738     1     9     9     3
 0.0081866447     1     9     9     5
 -0.0001348150     1     9    10     6
 -0.0002157538     1     9    10     7
 -0.0028053221     1     9    10    12
 -0.0001487706     1     9    10    13
 -0.0000493205     1     9    11     6
 -0.0000789310     1     9    11     7
 0.0008725176     1     9    11    12
 0.0000462709     1     9    11    13
 0.0000000009     1     9    12     1
 -0.1905338118     1     9    12     2
 0.0151541863     1     9    12     4
 0.0100795492     1     9    12    10
 0.0019957090     1     9    12    11
 0.0000000001     1     9    13     1
 -0.0101043010     1     9    13     2
 0.0008036498     1     9    13     4
 0.0005345340     1     9    13    10
 0.0001058356     1     9    13    11
 -0.0074238386     1    10     2     1
 -0.0001509512     1    10     2     3
 0.0003907128     1    10     2     5
 0.0000000007     1    10     3     1
 -0.1508781738     1    10     3     2
 0.0017557228     1    10     3     4
 0.0050082638     1    10     3    11
 -0.0702095391     1    10     4     1
 -0.0071453788     1    10     4     3
 -0.0049189134     1    10     4     5
 -0.0000000009     1    10     5     1
 0.1753030477     1    10     5     2
 -0.0182072050     1    10     5     4
 -0.0077509446     1    10     5    11
 -0.0100859794     1    10     6     8
 -0.0063022844     1    10     6     9
 0.0063022844     1    10     7     8
 -0.0100859794     1    10     7     9
 -0.0102149913     1    10     8     6
 0.0063828982     1    10     8     7
 0.0006889765     1    10     8    12
 -0.0129918248     1    10     8    13
 -0.0063828982     1    10     9     6
 -0.0102149913     1    10     9     7
 -0.0129918248     1    10     9    12
 -0.0006889765     1    10     9    13
 -0.6048412288     1    10    10     1
 0.0081286971     1    10    10     3
 0.0156369199     1    10    10     5
 0.2191247696     1    10    11     1
 -0.0098944041     1    10    11     3
 -0.0163902594     1    10    11     5
 0.0005345340     1    10    12     8
 -0.0100795492     1    10    12     9
 -0.0100795492     1    10    13     8
 -0.0005345340     1    10    13     9
 0.0104464000     1    11     2     1
 0.0000000001     1    11     2     2
 0.0001882033     1    11     2     3
 -0.0005423347     1    11     2     5
 -0.0000000002     1    11     3     1
 0.0389242403     1    11     3     2
 -0.0006764045     1    11     3     4
 -0.0050082638     1    11     3    10
 -0.1063541121     1    11     4     1
 0.0098147139     1    11     4     3
 0.0086359552     1    11     4     5
 0.0000000010     1    11     5     1
 -0.2057912277     1    11     5     2
 0.0226620785     1    11     5     4
 0.0077509446     1    11     5    10
 0.0022999130     1    11     6     8
 0.0014371143     1    11     6     9
 -0.0014371143     1    11     7     8
 0.0022999130     1    11     7     9
 0.0021591434     1    11     8     6
 -0.0013491536     1    11     8     7
 0.0000601433     1    11     8    12
 -0.0011341034     1    11     8    13
 0.0013491536     1    11     9     6
 0.0021591434     1    11     9     7
 -0.0011341034     1    11     9    12
 -0.0000601433     1    11     9    13
 0.2191247696     1    11    10     1
 -0.0149389273     1    11    10     3
 -0.0087840231     1    11    10     5
 -0.5810850664     1    11    11     1
 0.0204891054     1    11    11     3
 0.0044493462     1    11    11     5
 0.0001058356     1    11    12     8
 -0.0019957090     1    11    12     9
 -0.0019957090     1    11    13     8
 -0.0001058356     1    11    13     9
 -0.0000125259     1    12     2     8
 0.0002361968     1    12     2     9
 0.0043049334     1    12     3     6
 0.0077778878     1    12     3     7
 -0.0003807877     1    12     4     8
 0.0071804005     1    12     4     9
 0.0009334206     1    12     5     6
 0.0016864466     1    12     5     7
 -0.0970215439     1    12     6     1
 0.0106960214     1    12     6     3
 0.0035765483     1    12     6     5
 -0.1752925351     1    12     7     1
 0.0193249109     1    12     7     3
 0.0064618866     1    12     7     5
 -0.0000000001     1    12     8     1
 0.0100918423     1    12     8     2
 -0.0012105205     1    12     8     4
 -0.0006889765     1    12     8    10
 -0.0000601433     1    12     8    11
 0.0000000009     1    12     9     1
 -0.1902988814     1    12     9     2
 0.0228264277     1    12     9     4
 0.0129918248     1    12     9    10
 0.0011341034     1    12     9    11
 -0.0001487706     1    12    10     8
 0.0028053221     1    12    10     9
 0.0000462709     1    12    11     8
 -0.0008725176     1    12    11     9
 -0.5840901201     1    12    12     1
 0.0176590125     1    12    12     3
 0.0086442014     1    12    12     5
 0.0002361968     1    13     2     8
 0.0000125259     1    13     2     9
 0.0077778878     1    13     3     6
 -0.0043049334     1    13     3     7
 0.0071804005     1    13     4     8
 0.0003807877     1    13     4     9
 0.0016864466     1    13     5     6
 -0.0009334206     1    13     5     7
 -0.1752925351     1    13     6     1
 0.0193249109     1    13     6     3
 0.0064618866     1    13     6     5
 0.0970215439     1    13     7     1
 -0.0106960214     1    13     7     3
 -0.0035765483     1    13     7     5
 0.0000000009     1    13     8     1
 -0.1902988814     1    13     8     2
 0.0228264277     1    13     8     4
 0.0129918248     1    13     8    10
 0.0011341034     1    13     8    11
 0.0000000001     1    13     9     1
 -0.0100918423     1    13     9     2
 0.0012105205     1    13     9     4
 0.0006889765     1    13     9    10
 0.0000601433     1    13     9    11
 0.0028053221     1    13    10     8
 0.0001487706     1    13    10     9
 -0.0008725176     1    13    11     8
 -0.0000462709     1    13    11     9
 -0.5840901201     1    13    13     1
 0.0176590125     1    13    13     3
 0.0086442014     1    13    13     5
 -0.3720374253     2     1     1     2
 0.0032962862     2     1     1     4
 -0.0074238386     2     1     1    10
 0.0104464000     2     1     1    11
 -0.0036089581     2     1     3     2
 0.2215431617     2     1     3     4
 0.1507250608     2     1     3    10
 -0.0387409309     2     1     3    11
 0.2214729670     2     1     4     3
 0.2102089302     2     1     4     5
 0.0096812580     2     1     5     2
 0.2100400462     2     1     5     4
 -0.1749282329     2     1     5    10
 0.2052506934     2     1     5    11
 0.2051563198     2     1     6     8
 0.1281931507     2     1     6     9
 -0.1281931507     2     1     7     8
 0.2051563198     2     1     7     9
 0.2053301740     2     1     8     6
 -0.1283017844     2     1     8     7
 -0.0101043010     2     1     8    12
 0.1905338118     2     1     8    13
 0.1283017844     2     1     9     6
 0.2053301740     2     1     9     7
 0.1905338118     2     1     9    12
 0.0101043010     2     1     9    13
 0.1508781738     2     1    10     3
 -0.1753030477     2     1    10     5
 -0.0000000001     2     1    11     2
 -0.0389242403     2     1    11     3
 0.2057912277     2     1    11     5
 -0.0100918423     2     1    12     8
 0.1902988814     2     1    12     9
 0.1902988814     2     1    13     8
 0.0100918423     2     1    13     9
 0.3720374253     2     2     1     1
 0.0036089581     2     2     1     3
 -0.0096812580     2     2     1     5
 0.0000000001     2     2     1    11
 0.0036089581     2     2     3     1
 0.6794625874     2     2     3     3
 0.0000000011     2     2     3     4
 -0.0621800064     2     2     3     5
 0.0000000007     2     2     3    10
 -0.0000000002     2     2     3    11
 0.0000000011     2     2     4     3
 0.6191204039     2     2     4     4
 0.0000000010     2     2     4     5
 0.0703225878     2     2     4    10
 0.1061630554     2     2     4    11
 -0.0096812580     2     2     5     1
 -0.0621800064     2     2     5     3
 0.0000000010     2     2     5     4
 0.6441297591     2     2     5     5
 -0.0000000009     2     2     5    10
 0.0000000010     2     2     5    11
 0.6027084084     2     2     6     6
 0.0000000009     2     2     6     8
 0.0000000006     2     2     6     9
 0.0971434098     2     2     6    12
 0.1755127147     2     2     6    13
 0.6027084084     2     2     7     7
 -0.0000000006     2     2     7     8
 0.0000000009     2     2     7     9
 0.1755127147     2     2     7    12
 -0.0971434098     2     2     7    13
 0.0000000009     2     2     8     6
 -0.0000000006     2     2     8     7
 0.6031444021     2     2     8     8
 -0.0000000001     2     2     8    12
 0.0000000009     2     2     8    13
 0.0000000006     2     2     9     6
 0.0000000009     2     2     9     7
 0.6031444021     2     2     9     9
 0.0000000009     2     2     9    12
 0.0000000001     2     2     9    13
 0.0000000007     2     2    10     3
 0.0703225878     2     2    10     4
 -0.0000000009     2     2    10     5
 0.6045407915     2     2    10    10
 -0.2187286172     2     2    10    11
 0.0000000001     2     2    11     1
 -0.0000000002     2     2    11     3
 0.1061630554     2     2    11     4
 0.0000000010     2     2    11     5
 -0.2187286172     2     2    11    10
 0.5805387049     2     2    11    11
 0.0971434098     2     2    12     6
 0.1755127147     2     2    12     7
 -0.0000000001     2     2    12     8
 0.0000000009     2     2    12     9
 0.5843922155     2     2    12    12
 0.1755127147     2     2    13     6
 -0.0971434098     2     2    13     7
 0.0000000009     2     2    13     8
 0.0000000001     2     2    13     9
 0.5843922155     2     2    13    13
 -0.0036089581     2     3     1     2
 0.0000646665     2     3     1     4
 -0.0001509512     2     3     1    10
 0.0001882033     2     3     1    11
 -0.6794625874     2     3     3     2
 0.0051269521     2     3     3     4
 -0.0116723153     2     3     3    10
 0.0177328928     2     3     3    11
 -0.2214729670     2     3     4     1
 -0.0000000011     2     3     4     2
 -0.0112811851     2     3     4     5
 0.0621800064     2     3     5     2
 -0.0143915214     2     3     5     4
 0.0166613296     2     3     5    10
 -0.0264093983     2     3     5    11
 -0.0168916384     2     3     6     8
 -0.0105548410     2     3     6     9
 0.0105548410     2     3     7     8
 -0.0168916384     2     3     7     9
 -0.0135343539     2     3     8     6
 0.0084570218     2     3     8     7
 0.0010917921     2     3     8    12
 -0.0205876006     2     3     8    13
 -0.0084570218     2     3     9     6
 -0.0135343539     2     3     9     7
 -0.0205876006     2     3     9    12
 -0.0010917921     2     3     9    13
 -0.1508781738     2     3    10     1
 -0.0000000007     2     3    10     2
 0.0137097649     2     3    10     5
 0.0389242403     2     3    11     1
 0.0000000002     2     3    11     2
 -0.0168199073     2     3    11     5
 0.0008281102     2     3    12     8
 -0.0156154289     2     3    12     9
 -0.0156154289     2     3    13     8
 -0.0008281102     2     3    13     9
 -0.0032962862     2     4     1     1
 -0.0000646665     2     4     1     3
 0.0001736146     2     4     1     5
 -0.2215431617     2     4     3     1
 -0.0000000011     2     4     3     2
 -0.0051269521     2     4     3     3
 0.0031077898     2     4     3     5
 -0.6191204039     2     4     4     2
 0.0041406170     2     4     4    10
 -0.0066972626     2     4     4    11
 -0.2100400462     2     4     5     1
 -0.0000000010     2     4     5     2
 0.0143915214     2     4     5     3
 -0.0201594258     2     4     5     5
 -0.0176838040     2     4     6     6
 -0.0099873519     2     4     6    12
 -0.0180445306     2     4     6    13
 -0.0176838040     2     4     7     7
 -0.0180445306     2     4     7    12
 0.0099873519     2     4     7    13
 -0.0199099690     2     4     8     8
 -0.0199099690     2     4     9     9
 -0.0703225878     2     4    10     2
 -0.0174503067     2     4    10    10
 0.0194964449     2     4    10    11
 -0.1061630554     2     4    11     2
 0.0181647186     2     4    11    10
 -0.0195819348     2     4    11    11
 -0.0068415759     2     4    12     6
 -0.0123609369     2     4    12     7
 -0.0204098493     2     4    12    12
 -0.0123609369     2     4    13     6
 0.0068415759     2     4    13     7
 -0.0204098493     2     4    13    13
 0.0096812580     2     5     1     2
 -0.0001736146     2     5     1     4
 0.0003907128     2     5     1    10
 -0.0005423347     2     5     1    11
 0.0621800064     2     5     3     2
 -0.0031077898     2     5     3     4
 0.0025285374     2     5     3    10
 -0.0091024888     2     5     3    11
 -0.2102089302     2     5     4     1
 -0.0000000010     2     5     4     2
 0.0112811851     2     5     4     3
 -0.6441297591     2     5     5     2
 0.0201594258     2     5     5     4
 0.0057401558     2     5     5    10
 0.0010007674     2     5     5    11
 -0.0007714936     2     5     6     8
 -0.0004820723     2     5     6     9
 0.0004820723     2     5     7     8
 -0.0007714936     2     5     7     9
 -0.0016905574     2     5     8     6
 0.0010563548     2     5     8     7
 0.0003603727     2     5     8    12
 -0.0067954428     2     5     8    13
 -0.0010563548     2     5     9     6
 -0.0016905574     2     5     9     7
 -0.0067954428     2     5     9    12
 -0.0003603727     2     5     9    13
 0.1753030477     2     5    10     1
 0.0000000009     2     5    10     2
 -0.0137097649     2     5    10     3
 -0.2057912277     2     5    11     1
 -0.0000000010     2     5    11     2
 0.0168199073     2     5    11     3
 0.0001644844     2     5    12     8
 -0.0031016324     2     5    12     9
 -0.0031016324     2     5    13     8
 -0.0001644844     2     5    13     9
 -0.0001794779     2     6     1     8
 -0.0001121478     2     6     1     9
 -0.0030629791     2     6     3     8
 -0.0019139208     2     6     3     9
 -0.0028994330     2     6     4    12
 -0.0052385166     2     6     4    13
 0.0009965511     2     6     5     8
 0.0006227009     2     6     5     9
 -0.6027084084     2     6     6     2
 0.0176838040     2     6     6     4
 0.0041786254     2     6     6    10
 0.0073301977     2     6     6    11
 -0.2053301740     2     6     8     1
 -0.0000000009     2     6     8     2
 0.0135343539     2     6     8     3
 0.0016905574     2     6     8     5
 -0.1283017844     2     6     9     1
 -0.0000000006     2     6     9     2
 0.0084570218     2     6     9     3
 0.0010563548     2     6     9     5
 -0.0011991067     2     6    10    12
 -0.0021664720     2     6    10    13
 0.0004803027     2     6    11    12
 0.0008677813     2     6    11    13
 -0.0971434098     2     6    12     2
 0.0068415759     2     6    12     4
 0.0035900009     2     6    12    10
 0.0021844121     2     6    12    11
 -0.1755127147     2     6    13     2
 0.0123609369     2     6    13     4
 0.0064861919     2     6    13    10
 0.0039466607     2     6    13    11
 0.0001121478     2     7     1     8
 -0.0001794779     2     7     1     9
 0.0019139208     2     7     3     8
 -0.0030629791     2     7     3     9
 -0.0052385166     2     7     4    12
 0.0028994330     2     7     4    13
 -0.0006227009     2     7     5     8
 0.0009965511     2     7     5     9
 -0.6027084084     2     7     7     2
 0.0176838040     2     7     7     4
 0.0041786254     2     7     7    10
 0.0073301977     2     7     7    11
 0.1283017844     2     7     8     1
 0.0000000006     2     7     8     2
 -0.0084570218     2     7     8     3
 -0.0010563548     2     7     8     5
 -0.2053301740     2     7     9     1
 -0.0000000009     2     7     9     2
 0.0135343539     2     7     9     3
 0.0016905574     2     7     9     5
 -0.0021664720     2     7    10    12
 0.0011991067     2     7    10    13
 0.0008677813     2     7    11    12
 -0.0004803027     2     7    11    13
 -0.1755127147     2     7    12     2
 0.0123609369     2     7    12     4
 0.0064861919     2     7    12    10
 0.0039466607     2     7    12    11
 0.0971434098     2     7    13     2
 -0.0068415759     2     7    13     4
 -0.0035900009     2     7    13    10
 -0.0021844121     2     7    13    11
 0.0001794779     2     8     1     6
 -0.0001121478     2     8     1     7
 -0.0000125259     2     8     1    12
 0.0002361968     2     8     1    13
 0.0030629791     2     8     3     6
 -0.0019139208     2     8     3     7
 0.0002589011     2     8     3    12
 -0.0048820208     2     8     3    13
 -0.0009965511     2     8     5     6
 0.0006227009     2     8     5     7
 0.0001907974     2     8     5    12
 -0.0035978106     2     8     5    13
 -0.2051563198     2     8     6     1
 -0.0000000009     2     8     6     2
 0.0168916384     2     8     6     3
 0.0007714936     2     8     6     5
 0.1281931507     2     8     7     1
 0.0000000006     2     8     7     2
 -0.0105548410     2     8     7     3
 -0.0004820723     2     8     7     5
 -0.6031444021     2     8     8     2
 0.0199099690     2     8     8     4
 0.0086711478     2     8     8    10
 0.0033521687     2     8     8    11
 0.0100918423     2     8    12     1
 0.0000000001     2     8    12     2