&FCI NORB= 13,NELEC= 14,MS2=0,
 ORBSYM=1,1,1,1,1,1,1,1,1,1,1,1,1
 ISYM=1,
&END
 0.2014891906     1     1     2     2
 -0.0001958599     1     1     2     4
 -0.0026938272     1     1     2    10
 0.0000000001     1     1     2    11
 0.5565369238     1     1     3     3
 -0.0000000010     1     1     3     4
 0.0023373420     1     1     3     5
 0.0000000001     1     1     3    10
 0.1014430211     1     1     3    11
 -0.0001958599     1     1     4     2
 -0.0000000010     1     1     4     3
 0.5629971859     1     1     4     4
 0.0000000002     1     1     4     5
 -0.0277168742     1     1     4    10
 -0.0000000003     1     1     4    11
 0.0023373420     1     1     5     3
 0.0000000002     1     1     5     4
 0.5228082295     1     1     5     5
 0.0000000009     1     1     5    10
 0.1450665728     1     1     5    11
 0.5254791227     1     1     6     6
 -0.0000000009     1     1     6     8
 0.0083389082     1     1     6    12
 0.2036182425     1     1     6    13
 0.5254791227     1     1     7     7
 0.0000000009     1     1     7     9
 0.2036182425     1     1     7    12
 -0.0083389082     1     1     7    13
 -0.0000000009     1     1     8     6
 0.5363932006     1     1     8     8
 -0.0000000006     1     1     8    13
 0.0000000009     1     1     9     7
 0.5363932006     1     1     9     9
 0.0000000006     1     1     9    12
 -0.0000000001     1     1     9    13
 -0.0026938272     1     1    10     2
 0.0000000001     1     1    10     3
 -0.0277168742     1     1    10     4
 0.0000000009     1     1    10     5
 0.5602333690     1     1    10    10
 0.0000000006     1     1    10    11
 0.0000000001     1     1    11     2
 0.1014430211     1     1    11     3
 -0.0000000003     1     1    11     4
 0.1450665728     1     1    11     5
 0.0000000006     1     1    11    10
 0.5465092088     1     1    11    11
 0.0083389082     1     1    12     6
 0.2036182425     1     1    12     7
 0.0000000006     1     1    12     9
 0.5206216867     1     1    12    12
 0.2036182425     1     1    13     6
 -0.0083389082     1     1    13     7
 -0.0000000006     1     1    13     8
 -0.0000000001     1     1    13     9
 0.5206216867     1     1    13    13
 -0.2014891906     1     2     2     1
 -0.0000731879     1     2     2     3
 -0.0025319236     1     2     2     5
 -0.0025088641     1     2     2    11
 0.3577613475     1     2     3     4
 -0.0307123377     1     2     3    10
 0.0001958599     1     2     4     1
 0.3577615734     1     2     4     3
 -0.0626012532     1     2     4     5
 0.0983990210     1     2     4    11
 -0.0626070935     1     2     5     4
 -0.3240704392     1     2     5    10
 0.3336774123     1     2     6     8
 0.0118732399     1     2     6     9
 0.0118732399     1     2     7     8
 -0.3336774123     1     2     7     9
 0.3336436848     1     2     8     6
 0.0118720398     1     2     8     7
 0.0161012924     1     2     8    12
 0.2100671112     1     2     8    13
 0.0118720398     1     2     9     6
 -0.3336436848     1     2     9     7
 -0.2100671112     1     2     9    12
 0.0161012924     1     2     9    13
 0.0026938272     1     2    10     1
 -0.0307093023     1     2    10     3
 -0.3240026899     1     2    10     5
 -0.2216877858     1     2    10    11
 -0.0000000001     1     2    11     1
 0.0983932480     1     2    11     4
 -0.2217555801     1     2    11    10
 0.0161042153     1     2    12     8
 -0.2101052449     1     2    12     9
 0.2101052449     1     2    13     8
 0.0161042153     1     2    13     9
 0.0000731879     1     3     2     2
 -0.0000002259     1     3     2     4
 -0.0000030354     1     3     2    10
 -0.5565369238     1     3     3     1
 -0.0016700089     1     3     3     5
 -0.0022402107     1     3     3    11
 0.0000000010     1     3     4     1
 -0.3577615734     1     3     4     2
 -0.0002260799     1     3     4     4
 -0.0025807501     1     3     4    10
 -0.0023373420     1     3     5     1
 -0.0173733201     1     3     5     5
 -0.0186860748     1     3     5    11
 -0.0181602311     1     3     6     6
 -0.0009332611     1     3     6    12
 -0.0227882321     1     3     6    13
 -0.0181602311     1     3     7     7
 -0.0227882321     1     3     7    12
 0.0009332611     1     3     7    13
 -0.0187571102     1     3     8     8
 -0.0187571102     1     3     9     9
 -0.0000000001     1     3    10     1
 0.0307093023     1     3    10     2
 -0.0016214955     1     3    10     4
 -0.0197480017     1     3    10    10
 -0.1014430211     1     3    11     1
 -0.0125266700     1     3    11     5
 -0.0139923254     1     3    11    11
 -0.0006255905     1     3    12     6
 -0.0152755776     1     3    12     7
 -0.0197687020     1     3    12    12
 -0.0152755776     1     3    13     6
 0.0006255905     1     3    13     7
 -0.0197687020     1     3    13    13
 0.0001958599     1     4     2     1
 0.0000002259     1     4     2     3
 0.0000058403     1     4     2     5
 0.0000057730     1     4     2    11
 0.0000000010     1     4     3     1
 -0.3577613475     1     4     3     2
 -0.0009592546     1     4     3    10
 -0.5629971859     1     4     4     1
 0.0002260799     1     4     4     3
 0.0002016107     1     4     4     5
 0.0003010428     1     4     4    11
 -0.0000000002     1     4     5     1
 0.0626070935     1     4     5     2
 0.0187074695     1     4     5    10
 -0.0185573404     1     4     6     8
 -0.0006603256     1     4     6     9
 -0.0006603256     1     4     7     8
 0.0185573404     1     4     7     9
 -0.0188397590     1     4     8     6
 -0.0006703749     1     4     8     7
 -0.0018161413     1     4     8    12
 -0.0236944670     1     4     8    13
 -0.0006703749     1     4     9     6
 0.0188397590     1     4     9     7
 0.0236944670     1     4     9    12
 -0.0018161413     1     4     9    13
 0.0277168742     1     4    10     1
 0.0016214955     1     4    10     3
 0.0186257198     1     4    10     5
 0.0209038032     1     4    10    11
 0.0000000003     1     4    11     1
 -0.0983932480     1     4    11     2
 0.0146721683     1     4    11    10
 -0.0012476163     1     4    12     8
 0.0162771493     1     4    12     9
 -0.0162771493     1     4    13     8
 -0.0012476163     1     4    13     9
 0.0025319236     1     5     2     2
 -0.0000058403     1     5     2     4
 -0.0000677493     1     5     2    10
 -0.0023373420     1     5     3     1
 0.0016700089     1     5     3     3
 -0.0061594048     1     5     3    11
 -0.0000000002     1     5     4     1
 0.0626012532     1     5     4     2
 -0.0002016107     1     5     4     4
 0.0000817497     1     5     4    10
 -0.5228082295     1     5     5     1
 0.0173733201     1     5     5     3
 0.0044447088     1     5     5    11
 0.0025509432     1     5     6     6
 0.0000546445     1     5     6    12
 0.0013343023     1     5     6    13
 0.0025509432     1     5     7     7
 0.0013343023     1     5     7    12
 -0.0000546445     1     5     7    13
 0.0025850319     1     5     8     8
 0.0025850319     1     5     9     9
 -0.0000000009     1     5    10     1
 0.3240026899     1     5    10     2
 -0.0186257198     1     5    10     4
 0.0057254022     1     5    10    10
 -0.1450665728     1     5    11     1
 0.0125266700     1     5    11     3
 0.0126421257     1     5    11    11
 0.0000652476     1     5    12     6
 0.0015932077     1     5    12     7
 0.0033880797     1     5    12    12
 0.0015932077     1     5    13     6
 -0.0000652476     1     5    13     7
 0.0033880797     1     5    13    13
 0.0000337275     1     6     2     8
 0.0000012001     1     6     2     9
 -0.0003076706     1     6     3    12
 -0.0075126545     1     6     3    13
 0.0002824186     1     6     4     8
 0.0000100493     1     6     4     9
 -0.0000106031     1     6     5    12
 -0.0002589054     1     6     5    13
 -0.5254791227     1     6     6     1
 0.0181602311     1     6     6     3
 -0.0025509432     1     6     6     5
 0.0053302485     1     6     6    11
 0.0000000009     1     6     8     1
 -0.3336436848     1     6     8     2
 0.0188397590     1     6     8     4
 -0.0034178799     1     6     8    10
 -0.0118720398     1     6     9     2
 0.0006703749     1     6     9     4
 -0.0001216184     1     6     9    10
 0.0000342979     1     6    10     8
 0.0000012204     1     6    10     9
 0.0000481559     1     6    11    12
 0.0011758643     1     6    11    13
 -0.0083389082     1     6    12     1
 0.0006255905     1     6    12     3
 -0.0000652476     1     6    12     5
 0.0004157987     1     6    12    11
 -0.2036182425     1     6    13     1
 0.0152755776     1     6    13     3
 -0.0015932077     1     6    13     5
 0.0101529130     1     6    13    11
 0.0000012001     1     7     2     8
 -0.0000337275     1     7     2     9
 -0.0075126545     1     7     3    12
 0.0003076706     1     7     3    13
 0.0000100493     1     7     4     8
 -0.0002824186     1     7     4     9
 -0.0002589054     1     7     5    12
 0.0000106031     1     7     5    13
 -0.5254791227     1     7     7     1
 0.0181602311     1     7     7     3
 -0.0025509432     1     7     7     5
 0.0053302485     1     7     7    11
 -0.0118720398     1     7     8     2
 0.0006703749     1     7     8     4
 -0.0001216184     1     7     8    10
 -0.0000000009     1     7     9     1
 0.3336436848     1     7     9     2
 -0.0188397590     1     7     9     4
 0.0034178799     1     7     9    10
 0.0000012204     1     7    10     8
 -0.0000342979     1     7    10     9
 0.0011758643     1     7    11    12
 -0.0000481559     1     7    11    13
 -0.2036182425     1     7    12     1
 0.0152755776     1     7    12     3
 -0.0015932077     1     7    12     5
 0.0101529130     1     7    12    11
 0.0083389082     1     7    13     1
 -0.0006255905     1     7    13     3
 0.0000652476     1     7    13     5
 -0.0004157987     1     7    13    11
 -0.0000337275     1     8     2     6
 -0.0000012001     1     8     2     7
 -0.0000029229     1     8     2    12
 -0.0000381337     1     8     2    13
 -0.0002824186     1     8     4     6
 -0.0000100493     1     8     4     7
 -0.0005685250     1     8     4    12
 -0.0074173177     1     8     4    13
 0.0000000009     1     8     6     1
 -0.3336774123     1     8     6     2
 0.0185573404     1     8     6     4
 -0.0034521778     1     8     6    10
 -0.0118732399     1     8     7     2
 0.0006603256     1     8     7     4
 -0.0001228388     1     8     7    10
 -0.5363932006     1     8     8     1
 0.0187571102     1     8     8     3
 -0.0025850319     1     8     8     5
 0.0065318038     1     8     8    11
 -0.0000342979     1     8    10     6
 -0.0000012204     1     8    10     7
 0.0000605302     1     8    10    12
 0.0007897140     1     8    10    13
 -0.0161042153     1     8    12     2
 0.0012476163     1     8    12     4
 -0.0001780685     1     8    12    10
 0.0000000006     1     8    13     1
 -0.2101052449     1     8    13     2
 0.0162771493     1     8    13     4
 -0.0023231877     1     8    13    10
 -0.0000012001     1     9     2     6
 0.0000337275     1     9     2     7
 0.0000381337     1     9     2    12
 -0.0000029229     1     9     2    13
 -0.0000100493     1     9     4     6
 0.0002824186     1     9     4     7
 0.0074173177     1     9     4    12
 -0.0005685250     1     9     4    13
 -0.0118732399     1     9     6     2
 0.0006603256     1     9     6     4
 -0.0001228388     1     9     6    10
 -0.0000000009     1     9     7     1
 0.3336774123     1     9     7     2
 -0.0185573404     1     9     7     4
 0.0034521778     1     9     7    10
 -0.5363932006     1     9     9     1
 0.0187571102     1     9     9     3
 -0.0025850319     1     9     9     5
 0.0065318038     1     9     9    11
 -0.0000012204     1     9    10     6
 0.0000342979     1     9    10     7
 -0.0007897140     1     9    10    12
 0.0000605302     1     9    10    13
 -0.0000000006     1     9    12     1
 0.2101052449     1     9    12     2
 -0.0162771493     1     9    12     4
 0.0023231877     1     9    12    10
 0.0000000001     1     9    13     1
 -0.0161042153     1     9    13     2
 0.0012476163     1     9    13     4
 -0.0001780685     1     9    13    10
 0.0026938272     1    10     2     1
 0.0000030354     1    10     2     3
 0.0000677493     1    10     2     5
 0.0000677943     1    10     2    11
 -0.0000000001     1    10     3     1
 0.0307123377     1    10     3     2
 0.0009592546     1    10     3     4
 0.0277168742     1    10     4     1
 0.0025807501     1    10     4     3
 -0.0000817497     1    10     4     5
 0.0062316349     1    10     4    11
 -0.0000000009     1    10     5     1
 0.3240704392     1    10     5     2
 -0.0187074695     1    10     5     4
 0.0034521778     1    10     6     8
 0.0001228388     1    10     6     9
 0.0001228388     1    10     7     8
 -0.0034521778     1    10     7     9
 0.0034178799     1    10     8     6
 0.0001216184     1    10     8     7
 0.0002385987     1    10     8    12
 0.0031129017     1    10     8    13
 0.0001216184     1    10     9     6
 -0.0034178799     1    10     9     7
 -0.0031129017     1    10     9    12
 0.0002385987     1    10     9    13
 -0.5602333690     1    10    10     1
 0.0197480017     1    10    10     3
 -0.0057254022     1    10    10     5
 0.0035489695     1    10    10    11
 -0.0000000006     1    10    11     1
 0.2217555801     1    10    11     2
 -0.0146721683     1    10    11     4
 0.0001780685     1    10    12     8
 -0.0023231877     1    10    12     9
 0.0023231877     1    10    13     8
 0.0001780685     1    10    13     9
 -0.0000000001     1    11     2     1
 0.0025088641     1    11     2     2
 -0.0000057730     1    11     2     4
 -0.0000677943     1    11     2    10
 -0.1014430211     1    11     3     1
 0.0022402107     1    11     3     3
 0.0061594048     1    11     3     5
 0.0000000003     1    11     4     1
 -0.0983990210     1    11     4     2
 -0.0003010428     1    11     4     4
 -0.0062316349     1    11     4    10
 -0.1450665728     1    11     5     1
 0.0186860748     1    11     5     3
 -0.0044447088     1    11     5     5
 -0.0053302485     1    11     6     6
 -0.0003676428     1    11     6    12
 -0.0089770487     1    11     6    13
 -0.0053302485     1    11     7     7
 -0.0089770487     1    11     7    12
 0.0003676428     1    11     7    13
 -0.0065318038     1    11     8     8
 -0.0065318038     1    11     9     9
 -0.0000000006     1    11    10     1
 0.2216877858     1    11    10     2
 -0.0209038032     1    11    10     4
 -0.0035489695     1    11    10    10
 -0.5465092088     1    11    11     1
 0.0139923254     1    11    11     3
 -0.0126421257     1    11    11     5
 -0.0004157987     1    11    12     6
 -0.0101529130     1    11    12     7
 -0.0116323406     1    11    12    12
 -0.0101529130     1    11    13     6
 0.0004157987     1    11    13     7
 -0.0116323406     1    11    13    13
 0.0000029229     1    12     2     8
 -0.0000381337     1    12     2     9
 0.0003076706     1    12     3     6
 0.0075126545     1    12     3     7
 0.0005685250     1    12     4     8
 -0.0074173177     1    12     4     9
 0.0000106031     1    12     5     6
 0.0002589054     1    12     5     7
 -0.0083389082     1    12     6     1
 0.0009332611     1    12     6     3
 -0.0000546445     1    12     6     5
 0.0003676428     1    12     6    11
 -0.2036182425     1    12     7     1
 0.0227882321     1    12     7     3
 -0.0013343023     1    12     7     5
 0.0089770487     1    12     7    11
 -0.0161012924     1    12     8     2
 0.0018161413     1    12     8     4
 -0.0002385987     1    12     8    10
 -0.0000000006     1    12     9     1
 0.2100671112     1    12     9     2
 -0.0236944670     1    12     9     4
 0.0031129017     1    12     9    10
 -0.0000605302     1    12    10     8
 0.0007897140     1    12    10     9
 -0.0000481559     1    12    11     6
 -0.0011758643     1    12    11     7
 -0.5206216867     1    12    12     1
 0.0197687020     1    12    12     3
 -0.0033880797     1    12    12     5
 0.0116323406     1    12    12    11
 0.0000381337     1    13     2     8
 0.0000029229     1    13     2     9
 0.0075126545     1    13     3     6
 -0.0003076706     1    13     3     7
 0.0074173177     1    13     4     8
 0.0005685250     1    13     4     9
 0.0002589054     1    13     5     6
 -0.0000106031     1    13     5     7
 -0.2036182425     1    13     6     1
 0.0227882321     1    13     6     3
 -0.0013343023     1    13     6     5
 0.0089770487     1    13     6    11
 0.0083389082     1    13     7     1
 -0.0009332611     1    13     7     3
 0.0000546445     1    13     7     5
 -0.0003676428     1    13     7    11
 0.0000000006     1    13     8     1
 -0.2100671112     1    13     8     2
 0.0236944670     1    13     8     4
 -0.0031129017     1    13     8    10
 0.0000000001     1    13     9     1
 -0.0161012924     1    13     9     2
 0.0018161413     1    13     9     4
 -0.0002385987     1    13     9    10
 -0.0007897140     1    13    10     8
 -0.0000605302     1    13    10     9
 -0.0011758643     1    13    11     6
 0.0000481559     1    13    11     7
 -0.5206216867     1    13    13     1
 0.0197687020     1    13    13     3
 -0.0033880797     1    13    13     5
 0.0116323406     1    13    13    11
 -0.2014891906     2     1     1     2
 0.0001958599     2     1     1     4
 0.0026938272     2     1     1    10
 -0.0000000001     2     1     1    11
 -0.0000731879     2     1     3     2
 0.3577615734     2     1     3     4
 -0.0307093023     2     1     3    10
 0.3577613475     2     1     4     3
 -0.0626070935     2     1     4     5
 0.0983932480     2     1     4    11
 -0.0025319236     2     1     5     2
 -0.0626012532     2     1     5     4
 -0.3240026899     2     1     5    10
 0.3336436848     2     1     6     8
 0.0118720398     2     1     6     9
 0.0118720398     2     1     7     8
 -0.3336436848     2     1     7     9
 0.3336774123     2     1     8     6
 0.0118732399     2     1     8     7
 0.0161042153     2     1     8    12
 0.2101052449     2     1     8    13
 0.0118732399     2     1     9     6
 -0.3336774123     2     1     9     7
 -0.2101052449     2     1     9    12
 0.0161042153     2     1     9    13
 -0.0307123377     2     1    10     3
 -0.3240704392     2     1    10     5
 -0.2217555801     2     1    10    11
 -0.0025088641     2     1    11     2
 0.0983990210     2     1    11     4
 -0.2216877858     2     1    11    10
 0.0161012924     2     1    12     8
 -0.2100671112     2     1    12     9
 0.2100671112     2     1    13     8
 0.0161012924     2     1    13     9
 0.2014891906     2     2     1     1
 0.0000731879     2     2     1     3
 0.0025319236     2     2     1     5
 0.0025088641     2     2     1    11
 0.0000731879     2     2     3     1
 0.5565373674     2     2     3     3
 0.0000000010     2     2     3     4
 0.0023411301     2     2     3     5
 -0.0000000001     2     2     3    10
 0.1014472068     2     2     3    11
 0.0000000010     2     2     4     3
 0.5629968700     2     2     4     4
 -0.0000000002     2     2     4     5
 -0.0277244553     2     2     4    10
 0.0000000003     2     2     4    11
 0.0025319236     2     2     5     1
 0.0023411301     2     2     5     3
 -0.0000000002     2     2     5     4
 0.5228709728     2     2     5     5
 -0.0000000009     2     2     5    10
 0.1451302028     2     2     5    11
 0.5255126586     2     2     6     6
 0.0000000009     2     2     6     8
 0.0083404514     2     2     6    12
 0.2036559238     2     2     6    13
 0.5255126586     2     2     7     7
 -0.0000000009     2     2     7     9
 0.2036559238     2     2     7    12
 -0.0083404514     2     2     7    13
 0.0000000009     2     2     8     6
 0.5363592232     2     2     8     8
 0.0000000001     2     2     8    12
 0.0000000006     2     2     8    13
 -0.0000000009     2     2     9     7
 0.5363592232     2     2     9     9
 -0.0000000006     2     2     9    12
 -0.0000000001     2     2    10     3
 -0.0277244553     2     2    10     4
 -0.0000000009     2     2    10     5
 0.5601608355     2     2    10    10
 -0.0000000006     2     2    10    11
 0.0025088641     2     2    11     1
 0.1014472068     2     2    11     3
 0.0000000003     2     2    11     4
 0.1451302028     2     2    11     5
 -0.0000000006     2     2    11    10
 0.5465736986     2     2    11    11
 0.0083404514     2     2    12     6
 0.2036559238     2     2    12     7
 0.0000000001     2     2    12     8
 -0.0000000006     2     2    12     9
 0.5206641244     2     2    12    12
 0.2036559238     2     2    13     6
 -0.0083404514     2     2    13     7
 0.0000000006     2     2    13     8
 0.5206641244     2     2    13    13
 -0.0000731879     2     3     1     2
 0.0000002259     2     3     1     4
 0.0000030354     2     3     1    10
 -0.5565373674     2     3     3     2
 0.0000514690     2     3     3     4
 0.0019887132     2     3     3    10
 -0.3577613475     2     3     4     1
 -0.0000000010     2     3     4     2
 0.0024963492     2     3     4     5
 0.0020442125     2     3     4    11
 -0.0023411301     2     3     5     2
 0.0015656501     2     3     5     4
 0.0193143027     2     3     5    10
 -0.0187817344     2     3     6     8
 -0.0006683102     2     3     6     9
 -0.0006683102     2     3     7     8
 0.0187817344     2     3     7     9
 -0.0182314438     2     3     8     6
 -0.0006487293     2     3     8     7
 -0.0017490975     2     3     8    12
 -0.0228197732     2     3     8    13
 -0.0006487293     2     3     9     6
 0.0182314438     2     3     9     7
 0.0228197732     2     3     9    12
 -0.0017490975     2     3     9    13
 0.0307123377     2     3    10     1
 0.0000000001     2     3    10     2
 0.0178663482     2     3    10     5
 0.0193249489     2     3    10    11
 -0.1014472068     2     3    11     2
 0.0011120442     2     3    11     4
 0.0139396315     2     3    11    10
 -0.0012063043     2     3    12     8
 0.0157381686     2     3    12     9
 -0.0157381686     2     3    13     8
 -0.0012063043     2     3    13     9
 -0.0001958599     2     4     1     1
 -0.0000002259     2     4     1     3
 -0.0000058403     2     4     1     5
 -0.0000057730     2     4     1    11
 -0.3577615734     2     4     3     1
 -0.0000000010     2     4     3     2
 -0.0000514690     2     4     3     3
 0.0009306991     2     4     3     5
 0.0009321683     2     4     3    11
 -0.5629968700     2     4     4     2
 -0.0001309390     2     4     4    10
 0.0626012532     2     4     5     1
 0.0000000002     2     4     5     2
 -0.0015656501     2     4     5     3
 -0.0168920702     2     4     5     5
 -0.0186008163     2     4     5    11
 -0.0181942731     2     4     6     6
 -0.0009302630     2     4     6    12
 -0.0227150271     2     4     6    13
 -0.0181942731     2     4     7     7
 -0.0227150271     2     4     7    12
 0.0009302630     2     4     7    13
 -0.0196065434     2     4     8     8
 -0.0196065434     2     4     9     9
 0.0277244553     2     4    10     2
 -0.0211342716     2     4    10    10
 -0.0983990210     2     4    11     1
 -0.0000000003     2     4    11     2
 -0.0011120442     2     4    11     3
 -0.0128930243     2     4    11     5
 -0.0155466301     2     4    11    11
 -0.0006478947     2     4    12     6
 -0.0158201991     2     4    12     7
 -0.0205854558     2     4    12    12
 -0.0158201991     2     4    13     6
 0.0006478947     2     4    13     7
 -0.0205854558     2     4    13    13
 -0.0025319236     2     5     1     2
 0.0000058403     2     5     1     4
 0.0000677493     2     5     1    10
 -0.0023411301     2     5     3     2
 -0.0009306991     2     5     3     4
 0.0014479545     2     5     3    10
 0.0626070935     2     5     4     1
 0.0000000002     2     5     4     2
 -0.0024963492     2     5     4     3
 -0.0057077920     2     5     4    11
 -0.5228709728     2     5     5     2
 0.0168920702     2     5     5     4
 0.0003797876     2     5     5    10
 0.0000307361     2     5     6     8
 0.0000010937     2     5     6     9
 0.0000010937     2     5     7     8
 -0.0000307361     2     5     7     9
 0.0004020575     2     5     8     6
 0.0000143064     2     5     8     7
 0.0001285849     2     5     8    12
 0.0016775953     2     5     8    13
 0.0000143064     2     5     9     6
 -0.0004020575     2     5     9     7
 -0.0016775953     2     5     9    12
 0.0001285849     2     5     9    13
 0.3240704392     2     5    10     1
 0.0000000009     2     5    10     2
 -0.0178663482     2     5    10     3
 -0.0086493048     2     5    10    11
 -0.1451302028     2     5    11     2
 0.0128930243     2     5    11     4
 -0.0035688927     2     5    11    10
 0.0001139502     2     5    12     8
 -0.0014866627     2     5    12     9
 0.0014866627     2     5    13     8
 0.0001139502     2     5    13     9
 -0.0000337275     2     6     1     8
 -0.0000012001     2     6     1     9
 -0.0005502906     2     6     3     8
 -0.0000195809     2     6     3     9
 -0.0002823683     2     6     4    12
 -0.0068948280     2     6     4    13
 -0.0003713214     2     6     5     8
 -0.0000132127     2     6     5     9
 -0.5255126586     2     6     6     2
 0.0181942731     2     6     6     4
 -0.0006341055     2     6     6    10
 -0.3336774123     2     6     8     1
 -0.0000000009     2     6     8     2
 0.0182314438     2     6     8     3
 -0.0004020575     2     6     8     5
 0.0084004372     2     6     8    11
 -0.0118732399     2     6     9     1
 0.0006487293     2     6     9     3
 -0.0000143064     2     6     9     5
 0.0002989127     2     6     9    11
 0.0000339179     2     6    10    12
 0.0008282006     2     6    10    13
 0.0002888909     2     6    11     8
 0.0000102796     2     6    11     9
 -0.0083404514     2     6    12     2
 0.0006478947     2     6    12     4
 -0.0000866834     2     6    12    10
 -0.2036559238     2     6    13     2
 0.0158201991     2     6    13     4
 -0.0021166244     2     6    13    10
 -0.0000012001     2     7     1     8
 0.0000337275     2     7     1     9
 -0.0000195809     2     7     3     8
 0.0005502906     2     7     3     9
 -0.0068948280     2     7     4    12
 0.0002823683     2     7     4    13
 -0.0000132127     2     7     5     8
 0.0003713214     2     7     5     9
 -0.5255126586     2     7     7     2
 0.0181942731     2     7     7     4
 -0.0006341055     2     7     7    10
 -0.0118732399     2     7     8     1
 0.0006487293     2     7     8     3
 -0.0000143064     2     7     8     5
 0.0002989127     2     7     8    11
 0.3336774123     2     7     9     1
 0.0000000009     2     7     9     2
 -0.0182314438     2     7     9     3
 0.0004020575     2     7     9     5
 -0.0084004372     2     7     9    11
 0.0008282006     2     7    10    12
 -0.0000339179     2     7    10    13
 0.0000102796     2     7    11     8
 -0.0002888909     2     7    11     9
 -0.2036559238     2     7    12     2
 0.0158201991     2     7    12     4
 -0.0021166244     2     7    12    10
 0.0083404514     2     7    13     2
 -0.0006478947     2     7    13     4
 0.0000866834     2     7    13    10
 0.0000337275     2     8     1     6
 0.0000012001     2     8     1     7
 0.0000029229     2     8     1    12
 0.0000381337     2     8     1    13
 0.0005502906     2     8     3     6
 0.0000195809     2     8     3     7
 -0.0005427932     2     8     3    12
 -0.0070816046     2     8     3    13
 0.0003713214     2     8     5     6
 0.0000132127     2     8     5     7
 0.0000146347     2     8     5    12
 0.0001909326     2     8     5    13
 -0.3336436848     2     8     6     1
 -0.0000000009     2     8     6     2
 0.0187817344     2     8     6     3
 -0.0000307361     2     8     6     5
 0.0081115463     2     8     6    11
 -0.0118720398     2     8     7     1
 0.0006683102     2     8     7     3
 -0.0000010937     2     8     7     5
 0.0002886331     2     8     7    11
 -0.5363592232     2     8     8     2
 0.0196065434     2     8     8     4
 -0.0012093345     2     8     8    10
 -0.0002888909     2     8    11     6
 -0.0000102796     2     8    11     7
 0.0000664496     2     8    11    12
 0.0008669413     2     8    11    13
 -0.0161012924     2     8    12     1
 -0.0000000001     2     8    12     2
 0.0012063043     2     8    12     3
 -0.0001139502     2     8    12     5
 0.0008116582     2     8    12    11
 -0.2100671112     2     8    13     1
 -0.0000000006     2     8    13     2
 0.0157381686     2     8    13     3
 -0.0014866627     2     8    13     5
 0.0105893784     2     8    13    11
 0.0000012001     2     9     1     6
 -0.0000337275     2     9     1     7
 -0.0000381337     2     9     1    12
 0.0000029229     2     9     1    13
 0.0000195809     2     9     3     6
 -0.0005502906     2     9     3     7
 0.0070816046     2     9     3    12
 -0.0005427932     2     9     3    13
 0.0000132127     2     9     5     6
 -0.0003713214     2     9     5     7
 -0.0001909326     2     9     5    12
 0.0000146347     2     9     5    13
 -0.0118720398     2     9     6     1
 0.0006683102     2     9     6     3
 -0.0000010937     2     9     6     5
 0.0002886331     2     9     6    11
 0.3336436848     2     9     7     1
 0.0000000009     2     9     7     2
 -0.0187817344     2     9     7     3
 0.0000307361     2     9     7     5
 -0.0081115463     2     9     7    11
 -0.5363592232     2     9     9     2
 0.0196065434     2     9     9     4
 -0.0012093345     2     9     9    10
 -0.0000102796     2     9    11     6