&FCI NORB= 19,NELEC= 14,MS2=0,
 ORBSYM=1,1,1,1,1,1,1,1,1,1,1,1,1,1,1,1,1,1,1
 ISYM=1,
&END
 0.2014891906     1     1     2     2
 -0.0001958599     1     1     2     4
 0.0026938272     1     1     2    10
 0.0022644004     1     1     2    14
 -0.0019143489     1     1     2    18
 0.5565369238     1     1     3     3
 -0.0000000001     1     1     3     4
 -0.0023373420     1     1     3     5
 0.1014430211     1     1     3    11
 -0.1285319346     1     1     3    17
 0.0113293385     1     1     3    19
 -0.0001958599     1     1     4     2
 -0.0000000001     1     1     4     3
 0.5629971859     1     1     4     4
 0.0277168742     1     1     4    10
 -0.1225422205     1     1     4    14
 -0.1057057924     1     1     4    18
 -0.0023373420     1     1     5     3
 0.5228082295     1     1     5     5
 0.0000000001     1     1     5    10
 -0.1450665728     1     1     5    11
 -0.1304471641     1     1     5    17
 -0.0264794118     1     1     5    19
 0.5254791227     1     1     6     6
 -0.0000000001     1     1     6     9
 0.2037877678     1     1     6    12
 0.0006868559     1     1     6    13
 0.5254791227     1     1     7     7
 -0.0006868559     1     1     7    12
 0.2037877678     1     1     7    13
 0.5363932006     1     1     8     8
 -0.1170715180     1     1     8    15
 -0.1695198955     1     1     8    16
 -0.0000000001     1     1     9     6
 0.5363932006     1     1     9     9
 0.1695198955     1     1     9    15
 -0.1170715180     1     1     9    16
 0.0026938272     1     1    10     2
 0.0277168742     1     1    10     4
 0.0000000001     1     1    10     5
 0.5602333690     1     1    10    10
 0.1516971397     1     1    10    14
 -0.1341558729     1     1    10    18
 0.1014430211     1     1    11     3
 -0.1450665728     1     1    11     5
 0.5465092088     1     1    11    11
 0.0324319860     1     1    11    17
 0.0012529620     1     1    11    19
 0.2037877678     1     1    12     6
 -0.0006868559     1     1    12     7
 0.5206216867     1     1    12    12
 -0.0000000001     1     1    12    15
 0.0006868559     1     1    13     6
 0.2037877678     1     1    13     7
 0.5206216867     1     1    13    13
 0.0000000001     1     1    13    16
 0.0022644004     1     1    14     2
 -0.1225422205     1     1    14     4
 0.1516971397     1     1    14    10
 0.4722131883     1     1    14    14
 -0.0000000001     1     1    14    17
 -0.0252082837     1     1    14    18
 -0.1170715180     1     1    15     8
 0.1695198955     1     1    15     9
 -0.0000000001     1     1    15    12
 0.5116330284     1     1    15    15
 -0.1695198955     1     1    16     8
 -0.1170715180     1     1    16     9
 0.0000000001     1     1    16    13
 0.5116330284     1     1    16    16
 -0.1285319346     1     1    17     3
 -0.1304471641     1     1    17     5
 0.0324319860     1     1    17    11
 -0.0000000001     1     1    17    14
 0.4596022640     1     1    17    17
 -0.0001169532     1     1    17    19
 -0.0019143489     1     1    18     2
 -0.1057057924     1     1    18     4
 -0.1341558729     1     1    18    10
 -0.0252082837     1     1    18    14
 0.4916946216     1     1    18    18
 0.0113293385     1     1    19     3
 -0.0264794118     1     1    19     5
 0.0012529620     1     1    19    11
 -0.0001169532     1     1    19    17
 0.4857103177     1     1    19    19
 -0.2014891906     1     2     2     1
 -0.0000731879     1     2     2     3
 0.0025319236     1     2     2     5
 -0.0025088641     1     2     2    11
 -0.0018024640     1     2     2    17
 -0.0003549124     1     2     2    19
 0.3577613475     1     2     3     4
 0.0307123377     1     2     3    10
 -0.1008849430     1     2     3    14
 -0.1119468912     1     2     3    18
 0.0001958599     1     2     4     1
 0.3577615734     1     2     4     3
 0.0626012532     1     2     4     5
 0.0983990210     1     2     4    11
 -0.1363451796     1     2     4    17
 0.0023381351     1     2     4    19
 0.0626070935     1     2     5     4
 -0.3240704392     1     2     5    10
 -0.1476196157     1     2     5    14
 0.0896666296     1     2     5    18
 -0.0000000001     1     2     6     7
 -0.1511712348     1     2     6     8
 0.2977059741     1     2     6     9
 0.1888110235     1     2     6    15
 -0.0255562227     1     2     6    16
 -0.0000000001     1     2     7     6
 0.2977059741     1     2     7     8
 0.1511712348     1     2     7     9
 -0.0255562227     1     2     7    15
 -0.1888110235     1     2     7    16
 -0.1511559547     1     2     8     6
 0.2976758826     1     2     8     7
 -0.0000000001     1     2     8     8
 -0.0960214579     1     2     8    12
 0.1875295242     1     2     8    13
 0.2976758826     1     2     9     6
 0.1511559547     1     2     9     7
 0.1875295242     1     2     9    12
 0.0960214579     1     2     9    13
 -0.0026938272     1     2    10     1
 0.0307093023     1     2    10     3
 -0.3240026899     1     2    10     5
 0.2216877858     1     2    10    11
 0.0990828033     1     2    10    17
 -0.0134366875     1     2    10    19
 0.0983932480     1     2    11     4
 0.2217555801     1     2    11    10
 0.0919991982     1     2    11    14
 -0.2531896575     1     2    11    18
 -0.0960388887     1     2    12     8
 0.1875635666     1     2    12     9
 0.3195611662     1     2    12    15
 -0.0421574087     1     2    12    16
 0.1875635666     1     2    13     8
 0.0960388887     1     2    13     9
 -0.0421574087     1     2    13    15
 -0.3195611662     1     2    13    16
 -0.0022644004     1     2    14     1
 -0.1008874541     1     2    14     3
 -0.1475634370     1     2    14     5
 0.0919430494     1     2    14    11
 0.2965809107     1     2    14    17
 0.0210838801     1     2    14    19
 0.1887713911     1     2    15     6
 -0.0255508583     1     2    15     7
 0.3195161729     1     2    15    12
 -0.0421514730     1     2    15    13
 -0.0255508583     1     2    16     6
 -0.1887713911     1     2    16     7
 -0.0421514730     1     2    16    12
 -0.3195161729     1     2    16    13
 -0.1363493948     1     2    17     4
 0.0991315764     1     2    17    10
 0.2966213514     1     2    17    14
 0.0313217713     1     2    17    18
 0.0019143489     1     2    18     1
 -0.1119448653     1     2    18     3
 0.0896194383     1     2    18     5
 -0.2531424030     1     2    18    11
 0.0313557426     1     2    18    17
 -0.0925031798     1     2    18    19
 0.0023369247     1     2    19     4
 -0.0134239231     1     2    19    10
 0.0210947769     1     2    19    14
 -0.0925119810     1     2    19    18
 0.0000731879     1     3     2     2
 -0.0000002259     1     3     2     4
 0.0000030354     1     3     2    10
 0.0000025111     1     3     2    14
 -0.0000020259     1     3     2    18
 -0.5565369238     1     3     3     1
 0.0016700089     1     3     3     5
 -0.0022402107     1     3     3    11
 -0.0008717515     1     3     3    17
 -0.0002736797     1     3     3    19
 0.0000000001     1     3     4     1
 -0.3577615734     1     3     4     2
 -0.0002260799     1     3     4     4
 0.0025807501     1     3     4    10
 0.0025940881     1     3     4    14
 -0.0013425946     1     3     4    18
 0.0023373420     1     3     5     1
 -0.0173733201     1     3     5     5
 0.0186860748     1     3     5    11
 0.0135611771     1     3     5    17
 0.0012948473     1     3     5    19
 -0.0181602311     1     3     6     6
 -0.0228072048     1     3     6    12
 -0.0000768705     1     3     6    13
 -0.0181602311     1     3     7     7
 0.0000768705     1     3     7    12
 -0.0228072048     1     3     7    13
 -0.0187571102     1     3     8     8
 0.0128992890     1     3     8    15
 0.0186782076     1     3     8    16
 -0.0187571102     1     3     9     9
 -0.0186782076     1     3     9    15
 0.0128992890     1     3     9    16
 -0.0307093023     1     3    10     2
 0.0016214955     1     3    10     4
 -0.0197480017     1     3    10    10
 -0.0175260224     1     3    10    14
 0.0143299396     1     3    10    18
 -0.1014430211     1     3    11     1
 0.0125266700     1     3    11     5
 -0.0139923254     1     3    11    11
 -0.0098140446     1     3    11    17
 -0.0007404975     1     3    11    19
 -0.0152882956     1     3    12     6
 0.0000515284     1     3    12     7
 -0.0197687020     1     3    12    12
 -0.0000515284     1     3    13     6
 -0.0152882956     1     3    13     7
 -0.0197687020     1     3    13    13
 0.1008874541     1     3    14     2
 0.0010094402     1     3    14     4
 -0.0121528652     1     3    14    10
 -0.0115360427     1     3    14    14
 0.0088150165     1     3    14    18
 0.0087869234     1     3    15     8
 -0.0127234904     1     3    15     9
 -0.0193209603     1     3    15    15
 0.0127234904     1     3    16     8
 0.0087869234     1     3    16     9
 -0.0193209603     1     3    16    16
 0.1285319346     1     3    17     1
 0.0085898647     1     3    17     5
 -0.0091932338     1     3    17    11
 -0.0073897747     1     3    17    17
 -0.0005989915     1     3    17    19
 0.1119448653     1     3    18     2
 -0.0007343724     1     3    18     4
 0.0092839196     1     3    18    10
 0.0083346821     1     3    18    14
 -0.0074740352     1     3    18    18
 -0.0113293385     1     3    19     1
 0.0009212947     1     3    19     5
 -0.0009152211     1     3    19    11
 -0.0007651672     1     3    19    17
 -0.0028014977     1     3    19    19
 0.0001958599     1     4     2     1
 0.0000002259     1     4     2     3
 -0.0000058403     1     4     2     5
 0.0000057730     1     4     2    11
 0.0000042152     1     4     2    17
 0.0000012104     1     4     2    19
 0.0000000001     1     4     3     1
 -0.3577613475     1     4     3     2
 0.0009592546     1     4     3    10
 0.0015846479     1     4     3    14
 -0.0006082222     1     4     3    18
 -0.5629971859     1     4     4     1
 0.0002260799     1     4     4     3
 -0.0002016107     1     4     4     5
 0.0003010428     1     4     4    11
 0.0009141005     1     4     4    17
 0.0000162276     1     4     4    19
 -0.0626070935     1     4     5     2
 0.0187074695     1     4     5    10
 0.0160846277     1     4     5    14
 -0.0142417627     1     4     5    18
 0.0084073299     1     4     6     8
 -0.0165568028     1     4     6     9
 -0.0223924525     1     4     6    15
 0.0030308956     1     4     6    16
 -0.0165568028     1     4     7     8
 -0.0084073299     1     4     7     9
 0.0030308956     1     4     7    15
 0.0223924525     1     4     7    16
 0.0085352785     1     4     8     6
 -0.0168087758     1     4     8     7
 0.0108307162     1     4     8    12
 -0.0211523456     1     4     8    13
 -0.0168087758     1     4     9     6
 -0.0085352785     1     4     9     7
 -0.0211523456     1     4     9    12
 -0.0108307162     1     4     9    13
 -0.0277168742     1     4    10     1
 -0.0016214955     1     4    10     3
 0.0186257198     1     4    10     5
 -0.0209038032     1     4    10    11
 -0.0138479924     1     4    10    17
 -0.0020054347     1     4    10    19
 -0.0983932480     1     4    11     2
 -0.0146721683     1     4    11    10
 -0.0123712364     1     4    11    14
 0.0118389831     1     4    11    18
 0.0074402680     1     4    12     8
 -0.0145308138     1     4    12     9
 -0.0201274139     1     4    12    15
 0.0026552651     1     4    12    16
 -0.0145308138     1     4    13     8
 -0.0074402680     1     4    13     9
 0.0026552651     1     4    13    15
 0.0201274139     1     4    13    16
 0.1225422205     1     4    14     1
 -0.0010094402     1     4    14     3
 0.0110583432     1     4    14     5
 -0.0125460851     1     4    14    11
 -0.0084318905     1     4    14    17
 -0.0011981102     1     4    14    19
 -0.0151506697     1     4    15     6
 0.0020506953     1     4    15     7
 -0.0195514945     1     4    15    12
 0.0025792882     1     4    15    13
 0.0020506953     1     4    16     6
 0.0151506697     1     4    16     7
 0.0025792882     1     4    16    12
 0.0195514945     1     4    16    13
 0.1363493948     1     4    17     2
 -0.0099349561     1     4    17    10
 -0.0087649239     1     4    17    14
 0.0075367879     1     4    17    18
 0.1057057924     1     4    18     1
 0.0007343724     1     4    18     3
 -0.0084990129     1     4    18     5
 0.0101584658     1     4    18    11
 0.0059867815     1     4    18    17
 0.0014703478     1     4    18    19
 -0.0023369247     1     4    19     2
 -0.0005732813     1     4    19    10
 -0.0002907977     1     4    19    14
 0.0008011183     1     4    19    18
 -0.0025319236     1     5     2     2
 0.0000058403     1     5     2     4
 -0.0000677493     1     5     2    10
 -0.0000561787     1     5     2    14
 0.0000471913     1     5     2    18
 0.0023373420     1     5     3     1
 -0.0016700089     1     5     3     3
 0.0061594048     1     5     3    11
 0.0049713124     1     5     3    17
 0.0003735526     1     5     3    19
 -0.0626012532     1     5     4     2
 0.0002016107     1     5     4     4
 0.0000817497     1     5     4    10
 0.0050262845     1     5     4    14
 -0.0057427498     1     5     4    18
 -0.5228082295     1     5     5     1
 0.0173733201     1     5     5     3
 0.0044447088     1     5     5    11
 -0.0077731087     1     5     5    17
 0.0081895160     1     5     5    19
 -0.0025509432     1     5     6     6
 -0.0013354132     1     5     6    12
 -0.0000045009     1     5     6    13
 -0.0025509432     1     5     7     7
 0.0000045009     1     5     7    12
 -0.0013354132     1     5     7    13
 -0.0025850319     1     5     8     8
 0.0013776331     1     5     8    15
 0.0019948167     1     5     8    16
 -0.0025850319     1     5     9     9
 -0.0019948167     1     5     9    15
 0.0013776331     1     5     9    16
 -0.0000000001     1     5    10     1
 0.3240026899     1     5    10     2
 -0.0186257198     1     5    10     4
 -0.0057254022     1     5    10    10
 0.0042641930     1     5    10    14
 0.0114847358     1     5    10    18
 0.1450665728     1     5    11     1
 -0.0125266700     1     5    11     3
 -0.0126421257     1     5    11    11
 0.0075035699     1     5    11    17
 -0.0044482609     1     5    11    19
 -0.0015945342     1     5    12     6
 0.0000053743     1     5    12     7
 -0.0033880797     1     5    12    12
 -0.0000053743     1     5    13     6
 -0.0015945342     1     5    13     7
 -0.0033880797     1     5    13    13
 0.1475634370     1     5    14     2
 -0.0110583432     1     5    14     4
 -0.0027241372     1     5    14    10
 0.0068546674     1     5    14    14
 0.0082120316     1     5    14    18
 0.0008484408     1     5    15     8
 -0.0012285446     1     5    15     9
 -0.0024029999     1     5    15    15
 0.0012285446     1     5    16     8
 0.0008484408     1     5    16     9
 -0.0024029999     1     5    16    16
 0.1304471641     1     5    17     1
 -0.0085898647     1     5    17     3
 -0.0048552456     1     5    17    11
 0.0067395596     1     5    17    17
 -0.0025152169     1     5    17    19
 -0.0896194383     1     5    18     2
 0.0084990129     1     5    18     4
 0.0019926049     1     5    18    10
 -0.0057888800     1     5    18    14
 -0.0083974821     1     5    18    18
 0.0264794118     1     5    19     1
 -0.0009212947     1     5    19     3
 0.0047412128     1     5    19    11
 0.0049318274     1     5    19    17
 -0.0009556666     1     5    19    19
 -0.0000152801     1     6     2     8
 0.0000300915     1     6     2     9
 0.0000396324     1     6     2    15
 -0.0000053644     1     6     2    16
 -0.0075189092     1     6     3    12
 -0.0000253421     1     6     3    13
 -0.0001279486     1     6     4     8
 0.0002519730     1     6     4     9
 -0.0072417828     1     6     4    15
 0.0009802003     1     6     4    16
 0.0002591210     1     6     5    12
 0.0000008734     1     6     5    13
 -0.5254791227     1     6     6     1
 0.0181602311     1     6     6     3
 0.0025509432     1     6     6     5
 0.0053302485     1     6     6    11
 -0.0090287245     1     6     6    17
 -0.0038366690     1     6     6    19
 0.0000000001     1     6     7     2
 0.1511559547     1     6     8     2
 -0.0085352785     1     6     8     4
 -0.0015484570     1     6     8    10
 0.0027510496     1     6     8    14
 0.0032813068     1     6     8    18
 0.0000000001     1     6     9     1
 -0.2976758826     1     6     9     2
 0.0168087758     1     6     9     4
 0.0030494220     1     6     9    10
 -0.0054177232     1     6     9    14
 -0.0064619743     1     6     9    18
 0.0000155386     1     6    10     8
 -0.0000306005     1     6    10     9
 -0.0004143886     1     6    10    15
 0.0000560890     1     6    10    16
 0.0011768433     1     6    11    12
 0.0000039665     1     6    11    13
 -0.2037877678     1     6    12     1
 0.0152882956     1     6    12     3
 0.0015945342     1     6    12     5
 0.0101613660     1     6    12    11
 -0.0122823148     1     6    12    17
 -0.0013679789     1     6    12    19
 -0.0006868559     1     6    13     1
 0.0000515284     1     6    13     3
 0.0000053743     1     6    13     5
 0.0000342483     1     6    13    11
 -0.0000413969     1     6    13    17
 -0.0000046107     1     6    13    19
 -0.0000111560     1     6    14     8
 0.0000219697     1     6    14     9
 -0.0012288786     1     6    14    15
 0.0001663329     1     6    14    16
 -0.1887713911     1     6    15     2
 0.0151506697     1     6    15     4
 0.0020407159     1     6    15    10
 -0.0103537108     1     6    15    14
 -0.0109751544     1     6    15    18
 0.0255508583     1     6    16     2
 -0.0020506953     1     6    16     4
 -0.0002762179     1     6    16    10
 0.0014014104     1     6    16    14
 0.0014855250     1     6    16    18
 -0.0019608000     1     6    17    12
 -0.0000066088     1     6    17    13
 -0.0001031210     1     6    18     8
 0.0002030791     1     6    18     9
 -0.0029513421     1     6    18    15
 0.0003994743     1     6    18    16
 0.0034874138     1     6    19    12
 0.0000117542     1     6    19    13
 0.0000300915     1     7     2     8
 0.0000152801     1     7     2     9
 -0.0000053644     1     7     2    15
 -0.0000396324     1     7     2    16
 0.0000253421     1     7     3    12
 -0.0075189092     1     7     3    13
 0.0002519730     1     7     4     8
 0.0001279486     1     7     4     9
 0.0009802003     1     7     4    15
 0.0072417828     1     7     4    16
 -0.0000008734     1     7     5    12
 0.0002591210     1     7     5    13
 0.0000000001     1     7     6     2
 -0.5254791227     1     7     7     1
 0.0181602311     1     7     7     3
 0.0025509432     1     7     7     5
 0.0053302485     1     7     7    11
 -0.0090287245     1     7     7    17
 -0.0038366690     1     7     7    19
 -0.2976758826     1     7     8     2
 0.0168087758     1     7     8     4
 0.0030494220     1     7     8    10
 -0.0054177232     1     7     8    14
 -0.0064619743     1     7     8    18
 -0.1511559547     1     7     9     2
 0.0085352785     1     7     9     4
 0.0015484570     1     7     9    10
 -0.0027510496     1     7     9    14
 -0.0032813068     1     7     9    18
 -0.0000306005     1     7    10     8
 -0.0000155386     1     7    10     9
 0.0000560890     1     7    10    15
 0.0004143886     1     7    10    16
 -0.0000039665     1     7    11    12
 0.0011768433     1     7    11    13
 0.0006868559     1     7    12     1
 -0.0000515284     1     7    12     3
 -0.0000053743     1     7    12     5
 -0.0000342483     1     7    12    11
 0.0000413969     1     7    12    17
 0.0000046107     1     7    12    19
 -0.2037877678     1     7    13     1
 0.0152882956     1     7    13     3
 0.0015945342     1     7    13     5
 0.0101613660     1     7    13    11
 -0.0122823148     1     7    13    17
 -0.0013679789     1     7    13    19
 0.0000219697     1     7    14     8
 0.0000111560     1     7    14     9
 0.0001663329     1     7    14    15
 0.0012288786     1     7    14    16
 0.0255508583     1     7    15     2
 -0.0020506953     1     7    15     4
 -0.0002762179     1     7    15    10
 0.0014014104     1     7    15    14
 0.0014855250     1     7    15    18
 0.1887713911     1     7    16     2
 -0.0151506697     1     7    16     4
 -0.0020407159     1     7    16    10
 0.0103537108     1     7    16    14
 0.0109751544     1     7    16    18
 0.0000066088     1     7    17    12
 -0.0019608000     1     7    17    13
 0.0002030791     1     7    18     8
 0.0001031210     1     7    18     9
 0.0003994743     1     7    18    15
 0.0029513421     1     7    18    16
 -0.0000117542     1     7    19    12
 0.0034874138     1     7    19    13
 0.0000152801     1     8     2     6
 -0.0000300915     1     8     2     7
 0.0000174308     1     8     2    12
 -0.0000340424     1     8     2    13
 0.0041123656     1     8     3    15
 0.0059547172     1     8     3    16
 0.0001279486     1     8     4     6
 -0.0002519730     1     8     4     7
 0.0033904482     1     8     4    12
 -0.0066215318     1     8     4    13
 0.0005291923     1     8     5    15
 0.0007662721     1     8     5    16
 0.1511712348     1     8     6     2
 -0.0084073299     1     8     6     4
 -0.0015639956     1     8     6    10
 0.0027622056     1     8     6    14
 0.0033844278     1     8     6    18
 -0.2977059741     1     8     7     2
 0.0165568028     1     8     7     4
 0.0030800225     1     8     7    10
 -0.0054396929     1     8     7    14
 -0.0066650534     1     8     7    18
 -0.5363932006     1     8     8     1
 0.0000000001     1     8     8     2
 0.0187571102     1     8     8     3
 0.0025850319     1     8     8     5
 0.0065318038     1     8     8    11
 -0.0093982320     1     8     8    17
 -0.0038456170     1     8     8    19
 -0.0000155386     1     8    10     6
 0.0000306005     1     8    10     7
 0.0003609775     1     8    10    12
 -0.0007049876     1     8    10    13
 -0.0002044002     1     8    11    15
 -0.0002959721     1     8    11    16
 0.0960388887     1     8    12     2
 -0.0074402680     1     8    12     4
 -0.0010619267     1     8    12    10
 0.0046194357     1     8    12    14
 0.0051742791     1     8    12    18
 -0.1875635666     1     8    13     2
 0.0145308138     1     8    13     4
 0.0020739385     1     8    13    10
 -0.0090217396     1     8    13    14
 -0.0101053466     1     8    13    18
 0.0000111560     1     8    14     6
 -0.0000219697     1     8    14     7
 0.0005327528     1     8    14    12
 -0.0010404640     1     8    14    13
 0.1170715180     1     8    15     1
 -0.0087869234     1     8    15     3
 -0.0008484408     1     8    15     5
 -0.0052639928     1     8    15    11
 0.0072716668     1     8    15    17
 0.0007363809     1     8    15    19
 0.1695198955     1     8    16     1
 -0.0127234904     1     8    16     3
 -0.0012285446     1     8    16     5
 -0.0076222767     1     8    16    11
 0.0105293945     1     8    16    17
 0.0010662817     1     8    16    19
 0.0008642318     1     8    17    15
 0.0012514102     1     8    17    16
 0.0001031210     1     8    18     6
 -0.0002030791     1     8    18     7
 0.0012584468     1     8    18    12
 -0.0024577417     1     8    18    13
 -0.0020149481     1     8    19    15
 -0.0029176506     1     8    19    16
 -0.0000300915     1     9     2     6
 -0.0000152801     1     9     2     7
 -0.0000340424     1     9     2    12
 -0.0000174308     1     9     2    13
 -0.0059547172     1     9     3    15
 0.0041123656     1     9     3    16
 -0.0002519730     1     9     4     6
 -0.0001279486     1     9     4     7
 -0.0066215318     1     9     4    12
 -0.0033904482     1     9     4    13
 -0.0007662721     1     9     5    15
 0.0005291923     1     9     5    16
 0.0000000001     1     9     6     1
 -0.2977059741     1     9     6     2
 0.0165568028     1     9     6     4
 0.0030800225     1     9     6    10
 -0.0054396929     1     9     6    14
 -0.0066650534     1     9     6    18
 -0.1511712348     1     9     7     2
 0.0084073299     1     9     7     4
 0.0015639956     1     9     7    10
 -0.0027622056     1     9     7    14
 -0.0033844278     1     9     7    18
 -0.5363932006     1     9     9     1
 0.0187571102     1     9     9     3
 0.0025850319     1     9     9     5
 0.0065318038     1     9     9    11
 -0.0093982320     1     9     9    17
 -0.0038456170     1     9     9    19
 0.0000306005     1     9    10     6
 0.0000155386     1     9    10     7
 -0.0007049876     1     9    10    12
 -0.0003609775     1     9    10    13
 0.0002959721     1     9    11    15
 -0.0002044002     1     9    11    16
 -0.1875635666     1     9    12     2
 0.0145308138     1     9    12     4
 0.0020739385     1     9    12    10
 -0.0090217396     1     9    12    14
 -0.0101053466     1     9    12    18
 -0.0960388887     1     9    13     2
 0.0074402680     1     9    13     4
 0.0010619267     1     9    13    10
 -0.0046194357     1     9    13    14
 -0.0051742791     1     9    13    18
 -0.0000219697     1     9    14     6
 -0.0000111560     1     9    14     7
 -0.0010404640     1     9    14    12
 -0.0005327528     1     9    14    13
 -0.1695198955     1     9    15     1
 0.0127234904     1     9    15     3
 0.0012285446     1     9    15     5
 0.0076222767     1     9    15    11
 -0.0105293945     1     9    15    17
 -0.0010662817     1     9    15    19
 0.1170715180     1     9    16     1
 -0.0087869234     1     9    16     3
 -0.0008484408     1     9    16     5
 -0.0052639928     1     9    16    11
 0.0072716668     1     9    16    17
 0.0007363809     1     9    16    19
 -0.0012514102     1     9    17    15
 0.0008642318     1     9    17    16
 -0.0002030791     1     9    18     6
 -0.0001031210     1     9    18     7
 -0.0024577417     1     9    18    12
 -0.0012584468     1     9    18    13
 0.0029176506     1     9    19    15
 -0.0020149481     1     9    19    16
 -0.0026938272     1    10     2     1
 -0.0000030354     1    10     2     3
 0.0000677493     1    10     2     5
 -0.0000677943     1    10     2    11
 -0.0000487731     1    10     2    17
 -0.0000127644     1    10     2    19
 -0.0307123377     1    10     3     2
 -0.0009592546     1    10     3     4
 -0.0053731572     1    10     3    14
 0.0050460200     1    10     3    18
 -0.0277168742     1    10     4     1
 -0.0025807501     1    10     4     3
 -0.0000817497     1    10     4     5
 -0.0062316349     1    10     4    11
 -0.0039130363     1    10     4    17
 -0.0014321534     1    10     4    19
 -0.0000000001     1    10     5     1
 0.3240704392     1    10     5     2
 -0.0187074695     1    10     5     4
 0.0069883302     1    10     5    14
 0.0094921309     1    10     5    18
 0.0015639956     1    10     6     8
 -0.0030800225     1    10     6     9
 -0.0024551045     1    10     6    15
 0.0003323069     1    10     6    16
 -0.0030800225     1    10     7     8
 -0.0015639956     1    10     7     9
 0.0003323069     1    10     7    15
 0.0024551045     1    10     7    16
 0.0015484570     1    10     8     6
 -0.0030494220     1    10     8     7
 0.0014229042     1    10     8    12
 -0.0027789261     1    10     8    13
 -0.0030494220     1    10     9     6
 -0.0015484570     1    10     9     7
 -0.0027789261     1    10     9    12
 -0.0014229042     1    10     9    13
 -0.5602333690     1    10    10     1
 0.0197480017     1    10    10     3
 0.0057254022     1    10    10     5
 0.0035489695     1    10    10    11
 -0.0120369730     1    10    10    17
 0.0087814670     1    10    10    19
 -0.2217555801     1    10    11     2
 0.0146721683     1    10    11     4
 -0.0096461827     1    10    11    14
 -0.0085620482     1    10    11    18
 0.0010619267     1    10    12     8
 -0.0020739385     1    10    12     9
 -0.0035652406     1    10    12    15
 0.0004703365     1    10    12    16
 -0.0020739385     1    10    13     8
 -0.0010619267     1    10    13     9
 0.0004703365     1    10    13    15
 0.0035652406     1    10    13    16
 -0.1516971397     1    10    14     1
 0.0121528652     1    10    14     3
 0.0027241372     1    10    14     5
 0.0039566579     1    10    14    11
 -0.0132222514     1    10    14    17
 0.0033331425     1    10    14    19
 -0.0020407159     1    10    15     6
 0.0002762179     1    10    15     7
 -0.0040924755     1    10    15    12
 0.0005398909     1    10    15    13
 0.0002762179     1    10    16     6
 0.0020407159     1    10    16     7
 0.0005398909     1    10    16    12
 0.0040924755     1    10    16    13
 -0.0991315764     1    10    17     2
 0.0099349561     1    10    17     4
 -0.0096538831     1    10    17    14
 -0.0059515027     1    10    17    18
 0.1341558729     1    10    18     1
 -0.0092839196     1    10    18     3
 -0.0019926049     1    10    18     5
 -0.0029941995     1    10    18    11
 0.0091161261     1    10    18    17
 -0.0019260108     1    10    18    19
 0.0134239231     1    10    19     2
 0.0005732813     1    10    19     4
 -0.0056716070     1    10    19    14
 0.0043607300     1    10    19    18
 0.0025088641     1    11     2     2
 -0.0000057730     1    11     2     4
 0.0000677943     1    11     2    10
 0.0000561488     1    11     2    14
 -0.0000472545     1    11     2    18
 -0.1014430211     1    11     3     1
 0.0022402107     1    11     3     3
 -0.0061594048     1    11     3     5
 -0.0006208108     1    11     3    17
 0.0001747236     1    11     3    19
 -0.0983990210     1    11     4     2
 -0.0003010428     1    11     4     4