&FCI NORB= 13,NELEC= 14,MS2=0,
 ORBSYM=1,1,1,1,1,1,1,1,1,1,1,1,1
 ISYM=1,
&END
 0.4837628047     1     1     2     2
 0.0079180796     1     1     2     4
 0.0011179305     1     1     2    10
 0.8037785769     1     1     3     3
 0.1004597578     1     1     3     5
 -0.0962535431     1     1     3    11
 0.0079180796     1     1     4     2
 0.6370721494     1     1     4     4
 -0.1220263340     1     1     4    10
 0.1004597578     1     1     5     3
 0.6769763971     1     1     5     5
 -0.1539379092     1     1     5    11
 0.6734896146     1     1     6     6
 0.0897448380     1     1     6    12
 0.2034461375     1     1     6    13
 0.6734896146     1     1     7     7
 -0.2034461375     1     1     7    12
 0.0897448380     1     1     7    13
 0.6046556208     1     1     8     8
 0.6046556208     1     1     9     9
 0.0011179305     1     1    10     2
 -0.1220263340     1     1    10     4
 0.4012509744     1     1    10    10
 -0.0962535431     1     1    11     3
 -0.1539379092     1     1    11     5
 0.4837242637     1     1    11    11
 0.0897448380     1     1    12     6
 -0.2034461375     1     1    12     7
 0.5709304300     1     1    12    12
 0.2034461375     1     1    13     6
 0.0897448380     1     1    13     7
 0.5709304300     1     1    13    13
 -0.4837628047     1     2     2     1
 -0.0104002766     1     2     2     3
 -0.0169336573     1     2     2     5
 0.0113140374     1     2     2    11
 -0.1415789789     1     2     3     4
 0.1066349588     1     2     3    10
 -0.0079180796     1     2     4     1
 -0.1419219344     1     2     4     3
 0.2364449772     1     2     4     5
 -0.0272548946     1     2     4    11
 0.2370043010     1     2     5     4
 0.0034141580     1     2     5    10
 0.1298040544     1     2     6     8
 0.1811849820     1     2     6     9
 -0.1811849820     1     2     7     8
 0.1298040544     1     2     7     9
 0.1295237193     1     2     8     6
 -0.1807936805     1     2     8     7
 0.1238778136     1     2     8    12
 0.0259134335     1     2     8    13
 0.1807936805     1     2     9     6
 0.1295237193     1     2     9     7
 -0.0259134335     1     2     9    12
 0.1238778136     1     2     9    13
 -0.0011179305     1     2    10     1
 0.1065901727     1     2    10     3
 0.0033470134     1     2    10     5
 0.0494244874     1     2    10    11
 -0.0276446730     1     2    11     4
 0.0493784556     1     2    11    10
 0.1243516315     1     2    12     8
 -0.0260125493     1     2    12     9
 0.0260125493     1     2    13     8
 0.1243516315     1     2    13     9
 0.0104002766     1     3     2     2
 0.0003429555     1     3     2     4
 0.0000447861     1     3     2    10
 -0.8037785769     1     3     3     1
 -0.0222232814     1     3     3     5
 0.0156395867     1     3     3    11
 0.1419219344     1     3     4     2
 -0.0095435485     1     3     4     4
 -0.0001760908     1     3     4    10
 -0.1004597578     1     3     5     1
 -0.0246807093     1     3     5     5
 0.0117157876     1     3     5    11
 -0.0170491715     1     3     6     6
 -0.0085023050     1     3     6    12
 -0.0192742128     1     3     6    13
 -0.0170491715     1     3     7     7
 0.0192742128     1     3     7    12
 -0.0085023050     1     3     7    13
 -0.0138476985     1     3     8     8
 -0.0138476985     1     3     9     9
 -0.1065901727     1     3    10     2
 -0.0020300161     1     3    10     4
 -0.0002708116     1     3    10    10
 0.0962535431     1     3    11     1
 0.0111599975     1     3    11     5
 -0.0064992238     1     3    11    11
 -0.0051666210     1     3    12     6
 0.0117124183     1     3    12     7
 -0.0141637793     1     3    12    12
 -0.0117124183     1     3    13     6
 -0.0051666210     1     3    13     7
 -0.0141637793     1     3    13    13
 -0.0079180796     1     4     2     1
 -0.0003429555     1     4     2     3
 -0.0005593238     1     4     2     5
 0.0003897784     1     4     2    11
 0.1415789789     1     4     3     2
 0.0018539253     1     4     3    10
 -0.6370721494     1     4     4     1
 0.0095435485     1     4     4     3
 0.0022482645     1     4     4     5
 -0.0069230623     1     4     4    11
 -0.2370043010     1     4     5     2
 0.0047128101     1     4     5    10
 0.0070911568     1     4     6     8
 0.0098980815     1     4     6     9
 -0.0098980815     1     4     7     8
 0.0070911568     1     4     7     9
 0.0090108367     1     4     8     6
 -0.0125776370     1     4     8     7
 0.0190109097     1     4     8    12
 0.0039768053     1     4     8    13
 0.0125776370     1     4     9     6
 0.0090108367     1     4     9     7
 -0.0039768053     1     4     9    12
 0.0190109097     1     4     9    13
 0.1220263340     1     4    10     1
 0.0020300161     1     4    10     3
 0.0029699766     1     4    10     5
 -0.0041508729     1     4    10    11
 0.0276446730     1     4    11     2
 -0.0045411587     1     4    11    10
 0.0105567071     1     4    12     8
 -0.0022083093     1     4    12     9
 0.0022083093     1     4    13     8
 0.0105567071     1     4    13     9
 0.0169336573     1     5     2     2
 0.0005593238     1     5     2     4
 0.0000671446     1     5     2    10
 -0.1004597578     1     5     3     1
 0.0222232814     1     5     3     3
 0.0005557901     1     5     3    11
 -0.2364449772     1     5     4     2
 -0.0022482645     1     5     4     4
 0.0017428335     1     5     4    10
 -0.6769763971     1     5     5     1
 0.0246807093     1     5     5     3
 -0.0098399861     1     5     5    11
 0.0147243645     1     5     6     6
 0.0045560160     1     5     6    12
 0.0103282136     1     5     6    13
 0.0147243645     1     5     7     7
 -0.0103282136     1     5     7    12
 0.0045560160     1     5     7    13
 0.0091802373     1     5     8     8
 0.0091802373     1     5     9     9
 -0.0033470134     1     5    10     2
 -0.0029699766     1     5    10     4
 0.0008344394     1     5    10    10
 0.1539379092     1     5    11     1
 -0.0111599975     1     5    11     3
 0.0035968169     1     5    11    11
 0.0027452741     1     5    12     6
 -0.0062233709     1     5    12     7
 0.0082918433     1     5    12    12
 0.0062233709     1     5    13     6
 0.0027452741     1     5    13     7
 0.0082918433     1     5    13    13
 0.0002803351     1     6     2     8
 0.0003913015     1     6     2     9
 -0.0033356840     1     6     3    12
 -0.0075617945     1     6     3    13
 -0.0019196799     1     6     4     8
 -0.0026795555     1     6     4     9
 0.0018107419     1     6     5    12
 0.0041048427     1     6     5    13
 -0.6734896146     1     6     6     1
 0.0170491715     1     6     6     3
 -0.0147243645     1     6     6     5
 0.0076071570     1     6     6    11
 -0.1295237193     1     6     8     2
 -0.0090108367     1     6     8     4
 0.0057443858     1     6     8    10
 -0.1807936805     1     6     9     2
 -0.0125776370     1     6     9     4
 0.0080182120     1     6     9    10
 0.0004523294     1     6    10     8
 0.0006313770     1     6    10     9
 -0.0019418175     1     6    11    12
 -0.0044019833     1     6    11    13
 -0.0897448380     1     6    12     1
 0.0051666210     1     6    12     3
 -0.0027452741     1     6    12     5
 0.0001452706     1     6    12    11
 -0.2034461375     1     6    13     1
 0.0117124183     1     6    13     3
 -0.0062233709     1     6    13     5
 0.0003293195     1     6    13    11
 -0.0003913015     1     7     2     8
 0.0002803351     1     7     2     9
 0.0075617945     1     7     3    12
 -0.0033356840     1     7     3    13
 0.0026795555     1     7     4     8
 -0.0019196799     1     7     4     9
 -0.0041048427     1     7     5    12
 0.0018107419     1     7     5    13
 -0.6734896146     1     7     7     1
 0.0170491715     1     7     7     3
 -0.0147243645     1     7     7     5
 0.0076071570     1     7     7    11
 0.1807936805     1     7     8     2
 0.0125776370     1     7     8     4
 -0.0080182120     1     7     8    10
 -0.1295237193     1     7     9     2
 -0.0090108367     1     7     9     4
 0.0057443858     1     7     9    10
 -0.0006313770     1     7    10     8
 0.0004523294     1     7    10     9
 0.0044019833     1     7    11    12
 -0.0019418175     1     7    11    13
 0.2034461375     1     7    12     1
 -0.0117124183     1     7    12     3
 0.0062233709     1     7    12     5
 -0.0003293195     1     7    12    11
 -0.0897448380     1     7    13     1
 0.0051666210     1     7    13     3
 -0.0027452741     1     7    13     5
 0.0001452706     1     7    13    11
 -0.0002803351     1     8     2     6
 0.0003913015     1     8     2     7
 -0.0004738179     1     8     2    12
 -0.0000991158     1     8     2    13
 0.0019196799     1     8     4     6
 -0.0026795555     1     8     4     7
 0.0084542026     1     8     4    12
 0.0017684960     1     8     4    13
 -0.1298040544     1     8     6     2
 -0.0070911568     1     8     6     4
 0.0052920564     1     8     6    10
 0.1811849820     1     8     7     2
 0.0098980815     1     8     7     4
 -0.0073868350     1     8     7    10
 -0.6046556208     1     8     8     1
 0.0138476985     1     8     8     3
 -0.0091802373     1     8     8     5
 0.0011121599     1     8     8    11
 -0.0004523294     1     8    10     6
 0.0006313770     1     8    10     7
 -0.0026224339     1     8    10    12
 -0.0005485750     1     8    10    13
 -0.1243516315     1     8    12     2
 -0.0105567071     1     8    12     4
 0.0076227870     1     8    12    10
 -0.0260125493     1     8    13     2
 -0.0022083093     1     8    13     4
 0.0015945759     1     8    13    10
 -0.0003913015     1     9     2     6
 -0.0002803351     1     9     2     7
 0.0000991158     1     9     2    12
 -0.0004738179     1     9     2    13
 0.0026795555     1     9     4     6
 0.0019196799     1     9     4     7
 -0.0017684960     1     9     4    12
 0.0084542026     1     9     4    13
 -0.1811849820     1     9     6     2
 -0.0098980815     1     9     6     4
 0.0073868350     1     9     6    10
 -0.1298040544     1     9     7     2
 -0.0070911568     1     9     7     4
 0.0052920564     1     9     7    10
 -0.6046556208     1     9     9     1
 0.0138476985     1     9     9     3
 -0.0091802373     1     9     9     5
 0.0011121599     1     9     9    11
 -0.0006313770     1     9    10     6
 -0.0004523294     1     9    10     7
 0.0005485750     1     9    10    12
 -0.0026224339     1     9    10    13
 0.0260125493     1     9    12     2
 0.0022083093     1     9    12     4
 -0.0015945759     1     9    12    10
 -0.1243516315     1     9    13     2
 -0.0105567071     1     9    13     4
 0.0076227870     1     9    13    10
 -0.0011179305     1    10     2     1
 -0.0000447861     1    10     2     3
 -0.0000671446     1    10     2     5
 0.0000460318     1    10     2    11
 -0.1066349588     1    10     3     2
 -0.0018539253     1    10     3     4
 0.1220263340     1    10     4     1
 0.0001760908     1    10     4     3
 -0.0017428335     1    10     4     5
 0.0003902858     1    10     4    11
 -0.0034141580     1    10     5     2
 -0.0047128101     1    10     5     4
 -0.0052920564     1    10     6     8
 -0.0073868350     1    10     6     9
 0.0073868350     1    10     7     8
 -0.0052920564     1    10     7     9
 -0.0057443858     1    10     8     6
 0.0080182120     1    10     8     7
 -0.0102452209     1    10     8    12
 -0.0021431509     1    10     8    13
 -0.0080182120     1    10     9     6
 -0.0057443858     1    10     9     7
 0.0021431509     1    10     9    12
 -0.0102452209     1    10     9    13
 -0.4012509744     1    10    10     1
 0.0002708116     1    10    10     3
 -0.0008344394     1    10    10     5
 0.0000237466     1    10    10    11
 -0.0493784556     1    10    11     2
 0.0045411587     1    10    11     4
 -0.0076227870     1    10    12     8
 0.0015945759     1    10    12     9
 -0.0015945759     1    10    13     8
 -0.0076227870     1    10    13     9
 -0.0113140374     1    11     2     2
 -0.0003897784     1    11     2     4
 -0.0000460318     1    11     2    10
 0.0962535431     1    11     3     1
 -0.0156395867     1    11     3     3
 -0.0005557901     1    11     3     5
 0.0272548946     1    11     4     2
 0.0069230623     1    11     4     4
 -0.0003902858     1    11     4    10
 0.1539379092     1    11     5     1
 -0.0117157876     1    11     5     3
 0.0098399861     1    11     5     5
 -0.0076071570     1    11     6     6
 -0.0020870881     1    11     6    12
 -0.0047313028     1    11     6    13
 -0.0076071570     1    11     7     7
 0.0047313028     1    11     7    12
 -0.0020870881     1    11     7    13
 -0.0011121599     1    11     8     8
 -0.0011121599     1    11     9     9
 -0.0494244874     1    11    10     2
 0.0041508729     1    11    10     4
 -0.0000237466     1    11    10    10
 -0.4837242637     1    11    11     1
 0.0064992238     1    11    11     3
 -0.0035968169     1    11    11     5
 -0.0001452706     1    11    12     6
 0.0003293195     1    11    12     7
 -0.0007206120     1    11    12    12
 -0.0003293195     1    11    13     6
 -0.0001452706     1    11    13     7
 -0.0007206120     1    11    13    13
 0.0004738179     1    12     2     8
 -0.0000991158     1    12     2     9
 0.0033356840     1    12     3     6
 -0.0075617945     1    12     3     7
 -0.0084542026     1    12     4     8
 0.0017684960     1    12     4     9
 -0.0018107419     1    12     5     6
 0.0041048427     1    12     5     7
 -0.0897448380     1    12     6     1
 0.0085023050     1    12     6     3
 -0.0045560160     1    12     6     5
 0.0020870881     1    12     6    11
 0.2034461375     1    12     7     1
 -0.0192742128     1    12     7     3
 0.0103282136     1    12     7     5
 -0.0047313028     1    12     7    11
 -0.1238778136     1    12     8     2
 -0.0190109097     1    12     8     4
 0.0102452209     1    12     8    10
 0.0259134335     1    12     9     2
 0.0039768053     1    12     9     4
 -0.0021431509     1    12     9    10
 0.0026224339     1    12    10     8
 -0.0005485750     1    12    10     9
 0.0019418175     1    12    11     6
 -0.0044019833     1    12    11     7
 -0.5709304300     1    12    12     1
 0.0141637793     1    12    12     3
 -0.0082918433     1    12    12     5
 0.0007206120     1    12    12    11
 0.0000991158     1    13     2     8
 0.0004738179     1    13     2     9
 0.0075617945     1    13     3     6
 0.0033356840     1    13     3     7
 -0.0017684960     1    13     4     8
 -0.0084542026     1    13     4     9
 -0.0041048427     1    13     5     6
 -0.0018107419     1    13     5     7
 -0.2034461375     1    13     6     1
 0.0192742128     1    13     6     3
 -0.0103282136     1    13     6     5
 0.0047313028     1    13     6    11
 -0.0897448380     1    13     7     1
 0.0085023050     1    13     7     3
 -0.0045560160     1    13     7     5
 0.0020870881     1    13     7    11
 -0.0259134335     1    13     8     2
 -0.0039768053     1    13     8     4
 0.0021431509     1    13     8    10
 -0.1238778136     1    13     9     2
 -0.0190109097     1    13     9     4
 0.0102452209     1    13     9    10
 0.0005485750     1    13    10     8
 0.0026224339     1    13    10     9
 0.0044019833     1    13    11     6
 0.0019418175     1    13    11     7
 -0.5709304300     1    13    13     1
 0.0141637793     1    13    13     3
 -0.0082918433     1    13    13     5
 0.0007206120     1    13    13    11
 -0.4837628047     2     1     1     2
 -0.0079180796     2     1     1     4
 -0.0011179305     2     1     1    10
 -0.0104002766     2     1     3     2
 -0.1419219344     2     1     3     4
 0.1065901727     2     1     3    10
 -0.1415789789     2     1     4     3
 0.2370043010     2     1     4     5
 -0.0276446730     2     1     4    11
 -0.0169336573     2     1     5     2
 0.2364449772     2     1     5     4
 0.0033470134     2     1     5    10
 0.1295237193     2     1     6     8
 0.1807936805     2     1     6     9
 -0.1807936805     2     1     7     8
 0.1295237193     2     1     7     9
 0.1298040544     2     1     8     6
 -0.1811849820     2     1     8     7
 0.1243516315     2     1     8    12
 0.0260125493     2     1     8    13
 0.1811849820     2     1     9     6
 0.1298040544     2     1     9     7
 -0.0260125493     2     1     9    12
 0.1243516315     2     1     9    13
 0.1066349588     2     1    10     3
 0.0034141580     2     1    10     5
 0.0493784556     2     1    10    11
 0.0113140374     2     1    11     2
 -0.0272548946     2     1    11     4
 0.0494244874     2     1    11    10
 0.1238778136     2     1    12     8
 -0.0259134335     2     1    12     9
 0.0259134335     2     1    13     8
 0.1238778136     2     1    13     9
 0.4837628047     2     2     1     1
 0.0104002766     2     2     1     3
 0.0169336573     2     2     1     5
 -0.0113140374     2     2     1    11
 0.0104002766     2     2     3     1
 0.8040985027     2     2     3     3
 0.1011259534     2     2     3     5
 -0.0967254479     2     2     3    11
 0.6368602964     2     2     4     4
 -0.1220575739     2     2     4    10
 0.0169336573     2     2     5     1
 0.1011259534     2     2     5     3
 0.6782095128     2     2     5     5
 -0.1547679154     2     2     5    11
 0.6740872640     2     2     6     6
 0.0899968919     2     2     6    12
 0.2040175285     2     2     6    13
 0.6740872640     2     2     7     7
 -0.2040175285     2     2     7    12
 0.0899968919     2     2     7    13
 0.6043030246     2     2     8     8
 0.6043030246     2     2     9     9
 -0.1220575739     2     2    10     4
 0.4012500223     2     2    10    10
 -0.0113140374     2     2    11     1
 -0.0967254479     2     2    11     3
 -0.1547679154     2     2    11     5
 0.4842971015     2     2    11    11
 0.0899968919     2     2    12     6
 -0.2040175285     2     2    12     7
 0.5715642968     2     2    12    12
 0.2040175285     2     2    13     6
 0.0899968919     2     2    13     7
 0.5715642968     2     2    13    13
 -0.0104002766     2     3     1     2
 -0.0003429555     2     3     1     4
 -0.0000447861     2     3     1    10
 -0.8040985027     2     3     3     2
 -0.0130872259     2     3     3     4
 -0.0019081445     2     3     3    10
 0.1415789789     2     3     4     1
 -0.0177059402     2     3     4     5
 0.0056318381     2     3     4    11
 -0.1011259534     2     3     5     2
 -0.0233777457     2     3     5     4
 0.0008513039     2     3     5    10
 -0.0141002821     2     3     6     8
 -0.0196816608     2     3     6     9
 0.0196816608     2     3     7     8
 -0.0141002821     2     3     7     9
 -0.0107663014     2     3     8     6
 0.0150279754     2     3     8     7
 -0.0165260960     2     3     8    12
 -0.0034570185     2     3     8    13
 -0.0150279754     2     3     9     6
 -0.0107663014     2     3     9     7
 0.0034570185     2     3     9    12
 -0.0165260960     2     3     9    13
 -0.1066349588     2     3    10     1
 -0.0011094945     2     3    10     5
 -0.0021354777     2     3    10    11
 0.0967254479     2     3    11     2
 0.0094783563     2     3    11     4
 -0.0036049010     2     3    11    10
 -0.0148160520     2     3    12     8
 0.0030993022     2     3    12     9
 -0.0030993022     2     3    13     8
 -0.0148160520     2     3    13     9
 0.0079180796     2     4     1     1
 0.0003429555     2     4     1     3
 0.0005593238     2     4     1     5
 -0.0003897784     2     4     1    11
 0.1419219344     2     4     3     1
 0.0130872259     2     4     3     3
 0.0056718055     2     4     3     5
 -0.0038465182     2     4     3    11
 -0.6368602964     2     4     4     2
 0.0009175171     2     4     4    10
 -0.2364449772     2     4     5     1
 0.0233777457     2     4     5     3
 0.0206428988     2     4     5     5
 -0.0187287502     2     4     5    11
 0.0192262451     2     4     6     6
 0.0076238753     2     4     6    12
 0.0172828657     2     4     6    13
 0.0192262451     2     4     7     7
 -0.0172828657     2     4     7    12
 0.0076238753     2     4     7    13
 0.0182148048     2     4     8     8
 0.0182148048     2     4     9     9
 0.1220575739     2     4    10     2
 0.0009280389     2     4    10    10
 0.0272548946     2     4    11     1
 -0.0094783563     2     4    11     3
 -0.0077503012     2     4    11     5
 0.0074361173     2     4    11    11
 0.0054858677     2     4    12     6
 -0.0124361315     2     4    12     7
 0.0156946374     2     4    12    12
 0.0124361315     2     4    13     6
 0.0054858677     2     4    13     7
 0.0156946374     2     4    13    13
 -0.0169336573     2     5     1     2
 -0.0005593238     2     5     1     4
 -0.0000671446     2     5     1    10
 -0.1011259534     2     5     3     2
 -0.0056718055     2     5     3     4
 0.0019607984     2     5     3    10
 -0.2370043010     2     5     4     1
 0.0177059402     2     5     4     3
 -0.0109784490     2     5     4    11
 -0.6782095128     2     5     5     2
 -0.0206428988     2     5     5     4
 0.0059882742     2     5     5    10
 0.0002150360     2     5     6     8
 0.0003001546     2     5     6     9
 -0.0003001546     2     5     7     8
 0.0002150360     2     5     7     9
 0.0012505402     2     5     8     6
 -0.0017455472     2     5     8     7
 0.0077772965     2     5     8    12
 0.0016268971     2     5     8    13
 0.0017455472     2     5     9     6
 0.0012505402     2     5     9     7
 -0.0016268971     2     5     9    12
 0.0077772965     2     5     9    13
 -0.0034141580     2     5    10     1
 0.0011094945     2     5    10     3
 -0.0048137509     2     5    10    11
 0.1547679154     2     5    11     2
 0.0077503012     2     5    11     4
 -0.0081954583     2     5    11    10
 0.0015789690     2     5    12     8
 -0.0003302973     2     5    12     9
 0.0003302973     2     5    13     8
 0.0015789690     2     5    13     9
 -0.0002803351     2     6     1     8
 -0.0003913015     2     6     1     9
 -0.0033339807     2     6     3     8
 -0.0046536854     2     6     3     9
 0.0021380076     2     6     4    12
 0.0048467342     2     6     4    13
 -0.0010355042     2     6     5     8
 -0.0014453926     2     6     5     9
 -0.6740872640     2     6     6     2
 -0.0192262451     2     6     6     4
 0.0080997839     2     6     6    10
 -0.1298040544     2     6     8     1
 0.0107663014     2     6     8     3
 -0.0012505402     2     6     8     5
 -0.0019936681     2     6     8    11
 -0.1811849820     2     6     9     1
 0.0150279754     2     6     9     3
 -0.0017455472     2     6     9     5
 -0.0027828308     2     6     9    11
 -0.0008058563     2     6    10    12
 -0.0018268275     2     6    10    13
 -0.0008481115     2     6    11     8
 -0.0011838233     2     6    11     9
 -0.0899968919     2     6    12     2
 -0.0054858677     2     6    12     4
 0.0030777539     2     6    12    10
 -0.2040175285     2     6    13     2
 -0.0124361315     2     6    13     4
 0.0069770826     2     6    13    10
 0.0003913015     2     7     1     8
 -0.0002803351     2     7     1     9
 0.0046536854     2     7     3     8
 -0.0033339807     2     7     3     9
 -0.0048467342     2     7     4    12
 0.0021380076     2     7     4    13
 0.0014453926     2     7     5     8
 -0.0010355042     2     7     5     9
 -0.6740872640     2     7     7     2
 -0.0192262451     2     7     7     4
 0.0080997839     2     7     7    10
 0.1811849820     2     7     8     1
 -0.0150279754     2     7     8     3
 0.0017455472     2     7     8     5
 0.0027828308     2     7     8    11
 -0.1298040544     2     7     9     1
 0.0107663014     2     7     9     3
 -0.0012505402     2     7     9     5
 -0.0019936681     2     7     9    11
 0.0018268275     2     7    10    12
 -0.0008058563     2     7    10    13
 0.0011838233     2     7    11     8
 -0.0008481115     2     7    11     9
 0.2040175285     2     7    12     2
 0.0124361315     2     7    12     4
 -0.0069770826     2     7    12    10
 -0.0899968919     2     7    13     2
 -0.0054858677     2     7    13     4
 0.0030777539     2     7    13    10
 0.0002803351     2     8     1     6
 -0.0003913015     2     8     1     7
 0.0004738179     2     8     1    12
 0.0000991158     2     8     1    13
 0.0033339807     2     8     3     6
 -0.0046536854     2     8     3     7
 -0.0017100440     2     8     3    12
 -0.0003577163     2     8     3    13
 0.0010355042     2     8     5     6
 -0.0014453926     2     8     5     7
 0.0061983275     2     8     5    12
 0.0012965998     2     8     5    13
 -0.1295237193     2     8     6     1
 0.0141002821     2     8     6     3
 -0.0002150360     2     8     6     5
 -0.0011455566     2     8     6    11
 0.1807936805     2     8     7     1
 -0.0196816608     2     8     7     3
 0.0003001546     2     8     7     5
 0.0015990075     2     8     7    11
 -0.6043030246     2     8     8     2
 -0.0182148048     2     8     8     4
 0.0089776289     2     8     8    10
 0.0008481115     2     8    11     6
 -0.0011838233     2     8    11     7
 -0.0029055347     2     8    11    12
 -0.0006077955     2     8    11    13
 -0.1238778136     2     8    12     1
 0.0148160520     2     8    12     3
 -0.0015789690     2     8    12     5
 -0.0029419307     2     8    12    11
 -0.0259134335     2     8    13     1
 0.0030993022     2     8    13     3
 -0.0003302973     2     8    13     5
 -0.0006154090     2     8    13    11
 0.0003913015     2     9     1     6
 0.0002803351     2     9     1     7
 -0.0000991158     2     9     1    12
 0.0004738179     2     9     1    13
 0.0046536854     2     9     3     6
 0.0033339807     2     9     3     7
 0.0003577163     2     9     3    12
 -0.0017100440     2     9     3    13
 0.0014453926     2     9     5     6
 0.0010355042     2     9     5     7
 -0.0012965998     2     9     5    12
 0.0061983275     2     9     5    13
 -0.1807936805     2     9     6     1
 0.0196816608     2     9     6     3
 -0.0003001546     2     9     6     5
 -0.0015990075     2     9     6    11
 -0.1295237193     2     9     7     1
 0.0141002821     2     9     7     3
 -0.0002150360     2     9     7     5
 -0.0011455566     2     9     7    11
 -0.6043030246     2     9     9     2
 -0.0182148048     2     9     9     4
 0.0089776289     2     9     9    10
 0.0011838233     2     9    11     6
 0.0008481115     2     9    11     7
 0.0006077955     2     9    11    12
 -0.0029055347     2     9    11    13
 0.0259134335     2     9    12     1
 -0.0030993022     2     9    12     3
 0.0003302973     2     9    12     5
 0.0006154090     2     9    12    11
 -0.1238778136     2     9    13     1
 0.0148160520     2     9    13     3
 -0.0015789690     2     9    13     5
 -0.0029419307     2     9    13    11
 0.0011179305     2    10     1     1
 0.0000447861     2    10     1     3
 0.0000671446     2    10     1     5
 -0.0000460318     2    10     1    11
 -0.1065901727     2    10     3     1
 0.0019081445     2    10     3     3
 -0.0019607984     2    10     3     5
 0.0014694233     2    10     3    11
 0.1220575739     2    10     4     2
 -0.0009175171     2    10     4     4
 -0.0033470134     2    10     5     1
 -0.0008513039     2    10     5     3
 -0.0059882742     2    10     5     5
 0.0033817074     2    10     5    11
 -0.0080997839     2    10     6     6
 -0.0038836102     2    10     6    12
 -0.0088039101     2    10     6    13
 -0.0080997839     2    10     7     7
 0.0088039101     2    10     7    12
 -0.0038836102     2    10     7    13
 -0.0089776289     2    10     8     8
 -0.0089776289     2    10     9     9
 -0.4012500223     2    10    10     2
 -0.0009280389     2    10    10     4
 -0.0494244874     2    10    11     1
 0.0036049010     2    10    11     3
 0.0081954583     2    10    11     5
 -0.0053710294     2    10    11    11
 -0.0030777539     2    10    12     6
 0.0069770826     2    10    12     7
 -0.0085870914     2    10    12    12
 -0.0069770826     2    10    13     6
 -0.0030777539     2    10    13     7
 -0.0085870914     2    10    13    13
 0.0113140374     2    11     1     2
 0.0003897784     2    11     1     4
 0.0000460318     2    11     1    10
 0.0967254479     2    11     3     2
 0.0038465182     2    11     3     4
 -0.0014694233     2    11     3    10
 0.0276446730     2    11     4     1
 -0.0056318381     2    11     4     3
 0.0109784490     2    11     4     5
 0.1547679154     2    11     5     2
 0.0187287502     2    11     5     4
 -0.0033817074     2    11     5    10
 0.0011455566     2    11     6     8
 0.0015990075     2    11     6     9
 -0.0015990075     2    11     7     8
 0.0011455566     2    11     7     9
 0.0019936681     2    11     8     6
 -0.0027828308     2    11     8     7
 0.0000363960     2    11     8    12
 0.0000076135     2    11     8    13
 0.0027828308     2    11     9     6
 0.0019936681     2    11     9     7
 -0.0000076135     2    11     9    12
 0.0000363960     2    11     9    13
 -0.0493784556     2    11    10     1
 0.0021354777     2    11    10     3
 0.0048137509     2    11    10     5
 -0.4842971015     2    11    11     2
 -0.0074361173     2    11    11     4
 0.0053710294     2    11    11    10
 0.0029419307     2    11    12     8
 -0.0006154090     2    11    12     9
 0.0006154090     2    11    13     8
 0.0029419307     2    11    13     9
 -0.0004738179     2    12     1     8
 0.0000991158     2    12     1     9
 0.0017100440     2    12     3     8
 -0.0003577163     2    12     3     9
 -0.0021380076     2    12     4     6