&FCI NORB= 10,NELEC= 14,MS2=0,
 ORBSYM=1,1,1,1,1,1,1,1,1,1
 ISYM=1,
&END
 0.2327375304     1     1     2     2
 0.2698119915     1     1     3     3
 0.0000000006     1     1     3     8
 0.0147330962     1     1     3     9
 0.2301198670     1     1     4     4
 -0.0000000116     1     1     4     5
 -0.0000000043     1     1     4    10
 -0.0000000116     1     1     5     4
 0.2254884456     1     1     5     5
 -0.0016819414     1     1     5    10
 0.2802017488     1     1     6     6
 -0.0000000010     1     1     6     7
 -0.0000000010     1     1     7     6
 0.2532087835     1     1     7     7
 0.0000000006     1     1     8     3
 0.2481366973     1     1     8     8
 -0.0000000004     1     1     8     9
 0.0147330962     1     1     9     3
 -0.0000000004     1     1     9     8
 0.2679268205     1     1     9     9
 -0.0000000043     1     1    10     4
 -0.0016819414     1     1    10     5
 0.1879758759     1     1    10    10
 -0.2327375304     1     2     2     1
 -0.0147330811     1     2     3     8
 0.0000000006     1     2     3     9
 -0.0000000116     1     2     4     4
 0.0206624329     1     2     4     5
 0.0016819579     1     2     4    10
 -0.0252936823     1     2     5     4
 0.0000000116     1     2     5     5
 -0.0000000043     1     2     5    10
 0.0000000010     1     2     6     6
 0.0141163491     1     2     6     7
 0.0128765928     1     2     7     6
 -0.0000000010     1     2     7     7
 -0.0147330799     1     2     8     3
 -0.0000000004     1     2     8     8
 0.0105207357     1     2     8     9
 0.0000000006     1     2     9     3
 0.0092693781     1     2     9     8
 0.0000000004     1     2     9     9
 0.0016819494     1     2    10     4
 -0.0000000043     1     2    10     5
 -0.0000000010     1     3     2     8
 -0.2698119915     1     3     3     1
 -0.0000000012     1     3     4     6
 0.0004766428     1     3     4     7
 -0.0004766438     1     3     5     6
 -0.0000000012     1     3     5     7
 0.0000001081     1     3     6     4
 0.0426787767     1     3     6     5
 0.0018302901     1     3     6    10
 -0.0426787165     1     3     7     4
 0.0000001081     1     3     7     5
 -0.0000000001     1     3     7    10
 -0.0000000006     1     3     8     1
 0.0147330799     1     3     8     2
 -0.0147330962     1     3     9     1
 -0.0000000006     1     3     9     2
 0.0006677891     1     3    10     6
 0.0457825639     1     4     2     5
 0.0000000087     1     4     2    10
 -0.0000001092     1     4     3     6
 0.0431406706     1     4     3     7
 -0.2301198670     1     4     4     1
 0.0000000116     1     4     4     2
 0.0000000116     1     4     5     1
 0.0252936823     1     4     5     2
 -0.0000001081     1     4     6     3
 -0.0267351933     1     4     6     8
 -0.0000000916     1     4     6     9
 0.0426787165     1     4     7     3
 0.0000000451     1     4     7     8
 -0.0265610542     1     4     7     9
 -0.0255750827     1     4     8     6
 0.0000000440     1     4     8     7
 -0.0000000888     1     4     9     6
 -0.0261500217     1     4     9     7
 0.0000000043     1     4    10     1
 -0.0016819494     1     4    10     2
 -0.0457825639     1     5     2     4
 -0.0431407313     1     5     3     6
 -0.0000001092     1     5     3     7
 0.0000000116     1     5     4     1
 -0.0206624329     1     5     4     2
 -0.2254884456     1     5     5     1
 -0.0000000116     1     5     5     2
 -0.0426787767     1     5     6     3
 0.0000000684     1     5     6     8
 -0.0359077757     1     5     6     9
 -0.0000001081     1     5     7     3
 0.0173885374     1     5     7     8
 0.0000000683     1     5     7     9
 0.0000000655     1     5     8     6
 0.0169260192     1     5     8     7
 -0.0347991458     1     5     9     6
 0.0000000672     1     5     9     7
 0.0016819414     1     5    10     1
 0.0000000043     1     5    10     2
 0.0016956171     1     6     2     7
 0.0000001092     1     6     3     4
 0.0431407313     1     6     3     5
 0.0012415579     1     6     3    10
 0.0000000012     1     6     4     3
 -0.0007616079     1     6     4     8
 -0.0000000015     1     6     4     9
 0.0004766438     1     6     5     3
 0.0000000019     1     6     5     8
 -0.0005986295     1     6     5     9
 -0.2802017488     1     6     6     1
 -0.0000000010     1     6     6     2
 0.0000000010     1     6     7     1
 -0.0128765928     1     6     7     2
 0.0255750827     1     6     8     4
 -0.0000000655     1     6     8     5
 0.0000000888     1     6     9     4
 0.0347991458     1     6     9     5
 0.0006359642     1     6     9    10
 -0.0006677891     1     6    10     3
 0.0002734950     1     6    10     9
 -0.0016956171     1     7     2     6
 -0.0431406706     1     7     3     4
 0.0000001092     1     7     3     5
 -0.0000000001     1     7     3    10
 -0.0004766428     1     7     4     3
 0.0000000007     1     7     4     8
 -0.0000682835     1     7     4     9
 0.0000000012     1     7     5     3
 0.0002312655     1     7     5     8
 0.0000000002     1     7     5     9
 0.0000000010     1     7     6     1
 -0.0141163491     1     7     6     2
 -0.2532087835     1     7     7     1
 0.0000000010     1     7     7     2
 -0.0000000440     1     7     8     4
 -0.0169260192     1     7     8     5
 -0.0006359596     1     7     8    10
 0.0261500217     1     7     9     4
 -0.0000000672     1     7     9     5
 -0.0002734932     1     7    10     8
 0.0000000010     1     8     2     3
 0.0009231960     1     8     2     9
 -0.0000000006     1     8     3     1
 0.0147330811     1     8     3     2
 0.0007616079     1     8     4     6
 -0.0000000007     1     8     4     7
 -0.0000000019     1     8     5     6
 -0.0002312655     1     8     5     7
 0.0267351933     1     8     6     4
 -0.0000000684     1     8     6     5
 -0.0000000451     1     8     7     4
 -0.0173885374     1     8     7     5
 0.0003034454     1     8     7    10
 -0.2481366973     1     8     8     1
 0.0000000004     1     8     8     2
 0.0000000004     1     8     9     1
 -0.0092693781     1     8     9     2
 0.0002734932     1     8    10     7
 -0.0009231960     1     9     2     8
 -0.0147330962     1     9     3     1
 -0.0000000006     1     9     3     2
 0.0000000015     1     9     4     6
 0.0000682835     1     9     4     7
 0.0005986295     1     9     5     6
 -0.0000000002     1     9     5     7
 0.0000000916     1     9     6     4
 0.0359077757     1     9     6     5
 -0.0003034440     1     9     6    10
 0.0265610542     1     9     7     4
 -0.0000000683     1     9     7     5
 0.0000000004     1     9     8     1
 -0.0105207357     1     9     8     2
 -0.2679268205     1     9     9     1
 -0.0000000004     1     9     9     2
 -0.0002734950     1     9    10     6
 -0.0000000087     1    10     2     4
 -0.0012415579     1    10     3     6
 0.0000000001     1    10     3     7
 0.0000000043     1    10     4     1
 -0.0016819579     1    10     4     2
 0.0016819414     1    10     5     1
 0.0000000043     1    10     5     2
 -0.0018302901     1    10     6     3
 0.0003034440     1    10     6     9
 0.0000000001     1    10     7     3
 -0.0003034454     1    10     7     8
 0.0006359596     1    10     8     7
 -0.0006359642     1    10     9     6
 -0.1879758759     1    10    10     1
 -0.2327375304     2     1     1     2
 -0.0147330799     2     1     3     8
 0.0000000006     2     1     3     9
 -0.0000000116     2     1     4     4
 -0.0252936823     2     1     4     5
 0.0016819494     2     1     4    10
 0.0206624329     2     1     5     4
 0.0000000116     2     1     5     5
 -0.0000000043     2     1     5    10
 0.0000000010     2     1     6     6
 0.0128765928     2     1     6     7
 0.0141163491     2     1     7     6
 -0.0000000010     2     1     7     7
 -0.0147330811     2     1     8     3
 -0.0000000004     2     1     8     8
 0.0092693781     2     1     8     9
 0.0000000006     2     1     9     3
 0.0105207357     2     1     9     8
 0.0000000004     2     1     9     9
 0.0016819579     2     1    10     4
 -0.0000000043     2     1    10     5
 0.2327375304     2     2     1     1
 0.2698120121     2     2     3     3
 -0.0000000006     2     2     3     8
 -0.0147330728     2     2     3     9
 0.2254884260     2     2     4     4
 0.0000000116     2     2     4     5
 0.0000000043     2     2     4    10
 0.0000000116     2     2     5     4
 0.2301199130     2     2     5     5
 0.0016819681     2     2     5    10
 0.2532088376     2     2     6     6
 0.0000000010     2     2     6     7
 0.0000000010     2     2     7     6
 0.2802017459     2     2     7     7
 -0.0000000006     2     2     8     3
 0.2679268365     2     2     8     8
 0.0000000004     2     2     8     9
 -0.0147330728     2     2     9     3
 0.0000000004     2     2     9     8
 0.2481367252     2     2     9     9
 0.0000000043     2     2    10     4
 0.0016819681     2     2    10     5
 0.1879758590     2     2    10    10
 0.0000000010     2     3     1     8
 -0.2698120121     2     3     3     2
 0.0004766429     2     3     4     6
 0.0000000012     2     3     4     7
 -0.0000000012     2     3     5     6
 0.0004766427     2     3     5     7
 -0.0426788169     2     3     6     4
 0.0000001081     2     3     6     5
 0.0000000001     2     3     6    10
 -0.0000001081     2     3     7     4
 -0.0426786806     2     3     7     5
 0.0018302759     2     3     7    10
 0.0147330811     2     3     8     1
 0.0000000006     2     3     8     2
 -0.0000000006     2     3     9     1
 0.0147330728     2     3     9     2
 0.0006677895     2     3    10     7
 -0.0457825639     2     4     1     5
 -0.0000000087     2     4     1    10
 0.0431407707     2     4     3     6
 0.0000001092     2     4     3     7
 0.0000000116     2     4     4     1
 -0.2254884260     2     4     4     2
 -0.0206624329     2     4     5     1
 -0.0000000116     2     4     5     2
 0.0426788169     2     4     6     3
 -0.0000000683     2     4     6     8
 0.0173885541     2     4     6     9
 0.0000001081     2     4     7     3
 -0.0359078016     2     4     7     8
 -0.0000000684     2     4     7     9
 -0.0000000672     2     4     8     6
 -0.0347991730     2     4     8     7
 0.0169260356     2     4     9     6
 -0.0000000655     2     4     9     7
 -0.0016819579     2     4    10     1
 -0.0000000043     2     4    10     2
 0.0457825639     2     5     1     4
 -0.0000001092     2     5     3     6
 0.0431406350     2     5     3     7
 0.0252936823     2     5     4     1
 -0.0000000116     2     5     4     2
 -0.0000000116     2     5     5     1
 -0.2301199130     2     5     5     2
 -0.0000001081     2     5     6     3
 -0.0265610378     2     5     6     8
 -0.0000000451     2     5     6     9
 0.0426786806     2     5     7     3
 0.0000000916     2     5     7     8
 -0.0267351704     2     5     7     9
 -0.0261500051     2     5     8     6
 0.0000000888     2     5     8     7
 -0.0000000440     2     5     9     6
 -0.0255750599     2     5     9     7
 0.0000000043     2     5    10     1
 -0.0016819681     2     5    10     2
 -0.0016956171     2     6     1     7
 -0.0431407707     2     6     3     4
 0.0000001092     2     6     3     5
 0.0000000001     2     6     3    10
 -0.0004766429     2     6     4     3
 -0.0000000002     2     6     4     8
 0.0002312657     2     6     4     9
 0.0000000012     2     6     5     3
 -0.0000682841     2     6     5     8
 -0.0000000007     2     6     5     9
 -0.0000000010     2     6     6     1
 -0.2532088376     2     6     6     2
 -0.0141163491     2     6     7     1
 -0.0000000010     2     6     7     2
 0.0000000672     2     6     8     4
 0.0261500051     2     6     8     5
 -0.0006359516     2     6     8    10
 -0.0169260356     2     6     9     4
 0.0000000440     2     6     9     5
 -0.0002734932     2     6    10     8
 0.0016956171     2     7     1     6
 -0.0000001092     2     7     3     4
 -0.0431406350     2     7     3     5
 0.0012415433     2     7     3    10
 -0.0000000012     2     7     4     3
 -0.0005986285     2     7     4     8
 -0.0000000019     2     7     4     9
 -0.0004766427     2     7     5     3
 0.0000000015     2     7     5     8
 -0.0007616083     2     7     5     9
 -0.0128765928     2     7     6     1
 -0.0000000010     2     7     6     2
 0.0000000010     2     7     7     1
 -0.2802017459     2     7     7     2
 0.0347991730     2     7     8     4
 -0.0000000888     2     7     8     5
 0.0000000655     2     7     9     4
 0.0255750599     2     7     9     5
 -0.0006359537     2     7     9    10
 -0.0006677895     2     7    10     3
 -0.0002734925     2     7    10     9
 -0.0000000010     2     8     1     3
 -0.0009231960     2     8     1     9
 0.0147330799     2     8     3     1
 0.0000000006     2     8     3     2
 0.0000000002     2     8     4     6
 0.0005986285     2     8     4     7
 0.0000682841     2     8     5     6
 -0.0000000015     2     8     5     7
 0.0000000683     2     8     6     4
 0.0265610378     2     8     6     5
 0.0003034523     2     8     6    10
 0.0359078016     2     8     7     4
 -0.0000000916     2     8     7     5
 0.0000000004     2     8     8     1
 -0.2679268365     2     8     8     2
 -0.0105207357     2     8     9     1
 -0.0000000004     2     8     9     2
 0.0002734932     2     8    10     6
 0.0009231960     2     9     1     8
 -0.0000000006     2     9     3     1
 0.0147330728     2     9     3     2
 -0.0002312657     2     9     4     6
 0.0000000019     2     9     4     7
 0.0000000007     2     9     5     6
 0.0007616083     2     9     5     7
 -0.0173885541     2     9     6     4
 0.0000000451     2     9     6     5
 0.0000000684     2     9     7     4
 0.0267351704     2     9     7     5
 0.0003034503     2     9     7    10
 -0.0092693781     2     9     8     1
 -0.0000000004     2     9     8     2
 -0.0000000004     2     9     9     1
 -0.2481367252     2     9     9     2
 0.0002734925     2     9    10     7
 0.0000000087     2    10     1     4
 -0.0000000001     2    10     3     6
 -0.0012415433     2    10     3     7
 -0.0016819494     2    10     4     1
 -0.0000000043     2    10     4     2
 0.0000000043     2    10     5     1
 -0.0016819681     2    10     5     2
 -0.0000000001     2    10     6     3
 -0.0003034523     2    10     6     8
 -0.0018302759     2    10     7     3
 -0.0003034503     2    10     7     9
 0.0006359516     2    10     8     6
 0.0006359537     2    10     9     7
 -0.1879758590     2    10    10     2
 -0.2698119915     3     1     1     3
 -0.0000000006     3     1     1     8
 -0.0147330962     3     1     1     9
 0.0147330799     3     1     2     8
 -0.0000000006     3     1     2     9
 0.0000001081     3     1     4     6
 -0.0426787165     3     1     4     7
 0.0426787767     3     1     5     6
 0.0000001081     3     1     5     7
 -0.0000000012     3     1     6     4
 -0.0004766438     3     1     6     5
 0.0006677891     3     1     6    10
 0.0004766428     3     1     7     4
 -0.0000000012     3     1     7     5
 -0.0000000010     3     1     8     2
 0.0018302901     3     1    10     6
 -0.0000000001     3     1    10     7
 0.0147330811     3     2     1     8
 -0.0000000006     3     2     1     9
 -0.2698120121     3     2     2     3
 0.0000000006     3     2     2     8
 0.0147330728     3     2     2     9
 -0.0426788169     3     2     4     6
 -0.0000001081     3     2     4     7
 0.0000001081     3     2     5     6
 -0.0426786806     3     2     5     7
 0.0004766429     3     2     6     4
 -0.0000000012     3     2     6     5
 0.0000000012     3     2     7     4
 0.0004766427     3     2     7     5
 0.0006677895     3     2     7    10
 0.0000000010     3     2     8     1
 0.0000000001     3     2    10     6
 0.0018302759     3     2    10     7
 0.2698119915     3     3     1     1
 0.2698120121     3     3     2     2
 0.2693361818     3     3     4     4
 0.2693361658     3     3     5     5
 0.0000000203     3     3     5    10
 0.2140811528     3     3     6     6
 0.2140811829     3     3     7     7
 0.2512868015     3     3     8     8
 0.2512867944     3     3     9     9
 0.0000000203     3     3    10     5
 0.1878383188     3     3    10    10
 0.0000001092     3     4     1     6
 -0.0431406706     3     4     1     7
 -0.0431407707     3     4     2     6
 -0.0000001092     3     4     2     7
 -0.2693361818     3     4     4     3
 0.0000000121     3     4     4     8
 0.0023976140     3     4     4     9
 0.0023976129     3     4     5     8
 -0.0000000121     3     4     5     9
 0.0000000012     3     4     6     1
 -0.0004766429     3     4     6     2
 -0.0004766428     3     4     7     1
 -0.0000000012     3     4     7     2
 0.0000000001     3     4     8     5
 -0.0005941410     3     4     8    10
 -0.0000000015     3     4     9    10
 0.0012046000     3     4    10     8
 0.0000000031     3     4    10     9
 0.0431407313     3     5     1     6
 0.0000001092     3     5     1     7
 0.0000001092     3     5     2     6
 -0.0431406350     3     5     2     7
 0.0023976126     3     5     4     8
 -0.0000000121     3     5     4     9
 -0.2693361658     3     5     5     3
 -0.0000000121     3     5     5     8
 -0.0023976213     3     5     5     9
 0.0004766438     3     5     6     1
 0.0000000012     3     5     6     2
 0.0000000012     3     5     7     1
 -0.0004766427     3     5     7     2
 -0.0000000001     3     5     8     4
 0.0000000015     3     5     8    10
 -0.0005941421     3     5     9    10
 -0.0000000203     3     5    10     3
 -0.0000000031     3     5    10     8
 0.0012045997     3     5    10     9
 -0.0000001092     3     6     1     4
 -0.0431407313     3     6     1     5
 -0.0012415579     3     6     1    10
 0.0431407707     3     6     2     4
 -0.0000001092     3     6     2     5
 -0.0000000001     3     6     2    10
 -0.0000001081     3     6     4     1
 0.0426788169     3     6     4     2
 -0.0426787767     3     6     5     1
 -0.0000001081     3     6     5     2
 -0.2140811528     3     6     6     3
 -0.0000000009     3     6     6     8
 0.0268374180     3     6     6     9
 -0.0268374215     3     6     7     8
 -0.0000000009     3     6     7     9
 -0.0000000145     3     6     8     7
 -0.0018302901     3     6    10     1
 -0.0000000001     3     6    10     2
 0.0431406706     3     7     1     4
 -0.0000001092     3     7     1     5
 0.0000000001     3     7     1    10
 0.0000001092     3     7     2     4
 0.0431406350     3     7     2     5
 -0.0012415433     3     7     2    10
 0.0426787165     3     7     4     1
 0.0000001081     3     7     4     2
 -0.0000001081     3     7     5     1
 0.0426786806     3     7     5     2
 -0.0268374077     3     7     6     8
 -0.0000000009     3     7     6     9
 -0.2140811829     3     7     7     3
 0.0000000009     3     7     7     8
 -0.0268374046     3     7     7     9
 0.0000000145     3     7     8     6
 0.0000000001     3     7    10     1
 -0.0018302759     3     7    10     2
 0.0000000006     3     8     1     1
 -0.0147330811     3     8     1     2
 -0.0147330799     3     8     2     1
 -0.0000000006     3     8     2     2
 -0.0000000121     3     8     4     4
 -0.0023976126     3     8     4     5
 -0.0021648552     3     8     4    10
 -0.0023976129     3     8     5     4
 0.0000000121     3     8     5     5
 0.0000000054     3     8     5    10
 0.0000000009     3     8     6     6
 0.0268374077     3     8     6     7
 0.0268374215     3     8     7     6
 -0.0000000009     3     8     7     7
 -0.2512868015     3     8     8     3
 -0.0012046000     3     8    10     4
 0.0000000031     3     8    10     5
 0.0147330962     3     9     1     1
 0.0000000006     3     9     1     2
 0.0000000006     3     9     2     1
 -0.0147330728     3     9     2     2
 -0.0023976140     3     9     4     4
 0.0000000121     3     9     4     5
 -0.0000000054     3     9     4    10
 0.0000000121     3     9     5     4
 0.0023976213     3     9     5     5
 -0.0021648560     3     9     5    10
 -0.0268374180     3     9     6     6
 0.0000000009     3     9     6     7
 0.0000000009     3     9     7     6
 0.0268374046     3     9     7     7
 -0.2512867944     3     9     9     3
 -0.0000000031     3     9    10     4
 -0.0012045997     3     9    10     5
 0.0000000101     3     9    10    10
 0.0012415579     3    10     1     6
 -0.0000000001     3    10     1     7
 0.0000000001     3    10     2     6
 0.0012415433     3    10     2     7
 0.0021648552     3    10     4     8
 0.0000000054     3    10     4     9
 -0.0000000203     3    10     5     3
 -0.0000000054     3    10     5     8
 0.0021648560     3    10     5     9
 -0.0006677891     3    10     6     1
 -0.0006677895     3    10     7     2
 0.0005941410     3    10     8     4
 -0.0000000015     3    10     8     5
 0.0000000015     3    10     9     4
 0.0005941421     3    10     9     5
 -0.1878383188     3    10    10     3
 -0.0000000101     3    10    10     9
 -0.2301198670     4     1     1     4
 0.0000000116     4     1     1     5
 0.0000000043     4     1     1    10
 0.0000000116     4     1     2     4
 0.0252936823     4     1     2     5
 -0.0016819494     4     1     2    10
 -0.0000001081     4     1     3     6
 0.0426787165     4     1     3     7
 0.0457825639     4     1     5     2
 -0.0000001092     4     1     6     3
 -0.0255750827     4     1     6     8
 -0.0000000888     4     1     6     9
 0.0431406706     4     1     7     3
 0.0000000440     4     1     7     8
 -0.0261500217     4     1     7     9
 -0.0267351933     4     1     8     6
 0.0000000451     4     1     8     7
 -0.0000000916     4     1     9     6
 -0.0265610542     4     1     9     7
 0.0000000087     4     1    10     2
 0.0000000116     4     2     1     4
 -0.0206624329     4     2     1     5
 -0.0016819579     4     2     1    10
 -0.2254884260     4     2     2     4
 -0.0000000116     4     2     2     5
 -0.0000000043     4     2     2    10
 0.0426788169     4     2     3     6
 0.0000001081     4     2     3     7
 -0.0457825639     4     2     5     1
 0.0431407707     4     2     6     3
 -0.0000000672     4     2     6     8
 0.0169260356     4     2     6     9
 0.0000001092     4     2     7     3
 -0.0347991730     4     2     7     8
 -0.0000000655     4     2     7     9
 -0.0000000683     4     2     8     6
 -0.0359078016     4     2     8     7
 0.0173885541     4     2     9     6
 -0.0000000684     4     2     9     7
 -0.0000000087     4     2    10     1
 0.0000000012     4     3     1     6
 -0.0004766428     4     3     1     7
 -0.0004766429     4     3     2     6
 -0.0000000012     4     3     2     7
 -0.2693361818     4     3     3     4
 0.0000000001     4     3     5     8
 0.0000001092     4     3     6     1
 -0.0431407707     4     3     6     2
 -0.0431406706     4     3     7     1
 -0.0000001092     4     3     7     2
 0.0000000121     4     3     8     4
 0.0023976129     4     3     8     5
 0.0012046000     4     3     8    10
 0.0023976140     4     3     9     4
 -0.0000000121     4     3     9     5
 0.0000000031     4     3     9    10
 -0.0005941410     4     3    10     8
 -0.0000000015     4     3    10     9
 0.2301198670     4     4     1     1
 -0.0000000116     4     4     1     2
 -0.0000000116     4     4     2     1
 0.2254884260     4     4     2     2
 0.2693361818     4     4     3     3
 -0.0000000121     4     4     3     8
 -0.0023976140     4     4     3     9
 0.2578296122     4     4     5     5
 0.0000000202     4     4     5    10
 0.2652350222     4     4     6     6
 0.0000000087     4     4     6     7
 0.0000000087     4     4     7     6
 0.2686585748     4     4     7     7
 -0.0000000121     4     4     8     3
 0.2614791984     4     4     8     8
 0.0000000096     4     4     8     9
 -0.0023976140     4     4     9     3
 0.0000000096     4     4     9     8
 0.2576774336     4     4     9     9
 0.0000000202     4     4    10     5
 0.1892658138     4     4    10    10
 -0.0000000116     4     5     1     1
 0.0206624329     4     5     1     2
 -0.0252936823     4     5     2     1
 0.0000000116     4     5     2     2
 -0.0023976126     4     5     3     8
 0.0000000121     4     5     3     9
 -0.2578296122     4     5     5     4
 0.0000000087     4     5     6     6
 0.0020826326     4     5     6     7
 0.0013409228     4     5     7     6
 -0.0000000087     4     5     7     7
 -0.0023976129     4     5     8     3
 -0.0000000096     4     5     8     8
 0.0010251881     4     5     8     9
 0.0000000121     4     5     9     3
 0.0027765620     4     5     9     8
 0.0000000096     4     5     9     9
 -0.0000000202     4     5    10     4
 -0.0000000012     4     6     1     3
 0.0007616079     4     6     1     8
 0.0000000015     4     6     1     9
 0.0004766429     4     6     2     3
 0.0000000002     4     6     2     8
 -0.0002312657     4     6     2     9
 0.0000001081     4     6     3     1
 -0.0426788169     4     6     3     2
 0.0000715150     4     6     5     7
 -0.2652350222     4     6     6     4
 -0.0000000087     4     6     6     5
 0.0000000025     4     6     6    10
 -0.0000000087     4     6     7     4
 -0.0013409228     4     6     7     5
 -0.0009948366     4     6     7    10
 0.0267351933     4     6     8     1
 0.0000000683     4     6     8     2
 0.0000000916     4     6     9     1
 -0.0173885541     4     6     9     2
 -0.0000000006     4     6    10     7
 0.0004766428     4     7     1     3
 -0.0000000007     4     7     1     8
 0.0000682835     4     7     1     9
 0.0000000012     4     7     2     3
 0.0005986285     4     7     2     8
 0.0000000019     4     7     2     9
 -0.0426787165     4     7     3     1
 -0.0000001081     4     7     3     2
 -0.0000715150     4     7     5     6
 -0.0000000087     4     7     6     4
 -0.0020826326     4     7     6     5
 -0.0009948356     4     7     6    10
 -0.2686585748     4     7     7     4
 0.0000000087     4     7     7     5
 -0.0000000025     4     7     7    10
 -0.0000000451     4     7     8     1
 0.0359078016     4     7     8     2
 0.0265610542     4     7     9     1
 0.0000000684     4     7     9     2
 0.0000000006     4     7    10     6
 -0.0007616079     4     8     1     6
 0.0000000007     4     8     1     7
 -0.0000000002     4     8     2     6
 -0.0005986285     4     8     2     7
 0.0000000121     4     8     3     4
 0.0023976126     4     8     3     5
 0.0021648552     4     8     3    10
 -0.0000000001     4     8     5     3
 -0.0007413124     4     8     5     9
 0.0255750827     4     8     6     1
 0.0000000672     4     8     6     2
 -0.0000000440     4     8     7     1
 0.0347991730     4     8     7     2
 -0.2614791984     4     8     8     4
 0.0000000096     4     8     8     5
 -0.0000000007     4     8     8    10
 -0.0000000096     4     8     9     4
 -0.0027765620     4     8     9     5
 -0.0002725106     4     8     9    10
 0.0005941410     4     8    10     3
 -0.0000000015     4     8    10     9
 -0.0000000015     4     9     1     6
 -0.0000682835     4     9     1     7
 0.0002312657     4     9     2     6
 -0.0000000019     4     9     2     7
 0.0023976140     4     9     3     4
 -0.0000000121     4     9     3     5
 0.0000000054     4     9     3    10
 0.0007413124     4     9     5     8
 0.0000000888     4     9     6     1
 -0.0169260356     4     9     6     2
 0.0261500217     4     9     7     1
 0.0000000655     4     9     7     2
 -0.0000000096     4     9     8     4
 -0.0010251881     4     9     8     5
 -0.0002725094     4     9     8    10
 -0.2576774336     4     9     9     4
 -0.0000000096     4     9     9     5
 0.0000000007     4     9     9    10
 0.0000000015     4     9    10     3
 0.0000000015     4     9    10     8
 -0.0000000043     4    10     1     1
 0.0016819579     4    10     1     2
 0.0016819494     4    10     2     1
 0.0000000043     4    10     2     2
 -0.0021648552     4    10     3     8
 -0.0000000054     4    10     3     9
 -0.0000000202     4    10     5     4
 -0.0000000025     4    10     6     6
 0.0009948356     4    10     6     7
 0.0009948366     4    10     7     6
 0.0000000025     4    10     7     7
 -0.0012046000     4    10     8     3
 0.0000000007     4    10     8     8
 0.0002725094     4    10     8     9
 -0.0000000031     4    10     9     3
 0.0002725106     4    10     9     8
 -0.0000000007     4    10     9     9
 -0.1892658138     4    10    10     4
 0.0000000116     5     1     1     4
 -0.2254884456     5     1     1     5
 0.0016819414     5     1     1    10
 -0.0206624329     5     1     2     4
 -0.0000000116     5     1     2     5
 0.0000000043     5     1     2    10
 -0.0426787767     5     1     3     6
 -0.0000001081     5     1     3     7
 -0.0457825639     5     1     4     2
 -0.0431407313     5     1     6     3
 0.0000000655     5     1     6     8
 -0.0347991458     5     1     6     9
 -0.0000001092     5     1     7     3
 0.0169260192     5     1     7     8
 0.0000000672     5     1     7     9
 0.0000000684     5     1     8     6
 0.0173885374     5     1     8     7
 -0.0359077757     5     1     9     6
 0.0000000683     5     1     9     7
 0.0252936823     5     2     1     4
 -0.0000000116     5     2     1     5
 0.0000000043     5     2     1    10
 -0.0000000116     5     2     2     4
 -0.2301199130     5     2     2     5
 -0.0016819681     5     2     2    10
 -0.0000001081     5     2     3     6
 0.0426786806     5     2     3     7
 0.0457825639     5     2     4     1
 -0.0000001092     5     2     6     3
 -0.0261500051     5     2     6     8
 -0.0000000440     5     2     6     9