&FCI NORB= 13,NELEC= 14,MS2=0,
 ORBSYM=1,1,1,1,1,1,1,1,1,1,1,1,1
 ISYM=1,
&END
 0.2686657824     1     1     2     2
 0.0000000041     1     1     2     3
 -0.0008331701     1     1     2     4
 -0.0000000307     1     1     2     5
 0.0047444287     1     1     2    10
 -0.0046347364     1     1     2    13
 0.0000000041     1     1     3     2
 0.5891023785     1     1     3     3
 -0.0000039255     1     1     3     4
 -0.0201583541     1     1     3     5
 -0.0000009913     1     1     3    10
 -0.0000006385     1     1     3    13
 -0.0008331701     1     1     4     2
 -0.0000039255     1     1     4     3
 0.5929984397     1     1     4     4
 -0.0000015426     1     1     4     5
 0.0430271412     1     1     4    10
 0.1090196199     1     1     4    13
 -0.0000000307     1     1     5     2
 -0.0201583541     1     1     5     3
 -0.0000015426     1     1     5     4
 0.5890519684     1     1     5     5
 0.0000035345     1     1     5    10
 -0.0000021182     1     1     5    13
 0.5503681863     1     1     6     6
 -0.0000035471     1     1     6     8
 0.0000004332     1     1     6     9
 0.1493868424     1     1     6    11
 -0.1188499451     1     1     6    12
 0.5503681863     1     1     7     7
 -0.0000004332     1     1     7     8
 -0.0000035471     1     1     7     9
 0.1188499451     1     1     7    11
 0.1493868424     1     1     7    12
 -0.0000035471     1     1     8     6
 -0.0000004332     1     1     8     7
 0.5705838479     1     1     8     8
 -0.0000023273     1     1     8    11
 0.0000014285     1     1     8    12
 0.0000004332     1     1     9     6
 -0.0000035471     1     1     9     7
 0.5705838479     1     1     9     9
 -0.0000014285     1     1     9    11
 -0.0000023273     1     1     9    12
 0.0047444287     1     1    10     2
 -0.0000009913     1     1    10     3
 0.0430271412     1     1    10     4
 0.0000035345     1     1    10     5
 0.6130537183     1     1    10    10
 -0.1775618713     1     1    10    13
 0.1493868424     1     1    11     6
 0.1188499451     1     1    11     7
 -0.0000023273     1     1    11     8
 -0.0000014285     1     1    11     9
 0.5595371486     1     1    11    11
 -0.1188499451     1     1    12     6
 0.1493868424     1     1    12     7
 0.0000014285     1     1    12     8
 -0.0000023273     1     1    12     9
 0.5595371486     1     1    12    12
 -0.0046347364     1     1    13     2
 -0.0000006385     1     1    13     3
 0.1090196199     1     1    13     4
 -0.0000021182     1     1    13     5
 -0.1775618713     1     1    13    10
 0.4969273291     1     1    13    13
 -0.2686657824     1     2     2     1
 -0.0006485305     1     2     2     3
 -0.0000000052     1     2     2     4
 0.0048932696     1     2     2     5
 0.0000000298     1     2     2    10
 -0.0000000291     1     2     2    13
 -0.0000000041     1     2     3     1
 -0.0000000044     1     2     3     3
 0.3128609546     1     2     3     4
 -0.0000000003     1     2     3     5
 0.0790021813     1     2     3    10
 0.0506987186     1     2     3    13
 0.0008331701     1     2     4     1
 0.3128692664     1     2     4     3
 0.0000000039     1     2     4     4
 0.1229308884     1     2     4     5
 0.0000000005     1     2     4    10
 -0.0000000016     1     2     4    13
 0.0000000307     1     2     5     1
 -0.0000000003     1     2     5     3
 0.1229602777     1     2     5     4
 -0.0000000018     1     2     5     5
 -0.2817736663     1     2     5    10
 0.1687421442     1     2     5    13
 -0.0000000018     1     2     6     6
 0.2827301993     1     2     6     8
 -0.0345258108     1     2     6     9
 -0.0000000017     1     2     6    11
 0.0000000014     1     2     6    12
 -0.0000000018     1     2     7     7
 0.0345258109     1     2     7     8
 0.2827301996     1     2     7     9
 -0.0000000014     1     2     7    11
 -0.0000000017     1     2     7    12
 0.2826642833     1     2     8     6
 0.0345177615     1     2     8     7
 0.0000000015     1     2     8     8
 0.1853811638     1     2     8    11
 -0.1137931326     1     2     8    12
 -0.0345177614     1     2     9     6
 0.2826642836     1     2     9     7
 0.0000000015     1     2     9     9
 0.1137931326     1     2     9    11
 0.1853811638     1     2     9    12
 -0.0047444287     1     2    10     1
 0.0789728279     1     2    10     3
 0.0000000005     1     2    10     4
 -0.2816037634     1     2    10     5
 0.0000000016     1     2    10    10
 -0.0000000002     1     2    10    13
 -0.0000000017     1     2    11     6
 -0.0000000014     1     2    11     7
 0.1854519098     1     2    11     8
 0.1138365589     1     2    11     9
 -0.0000000049     1     2    11    11
 0.0000000014     1     2    12     6
 -0.0000000017     1     2    12     7
 -0.1138365589     1     2    12     8
 0.1854519098     1     2    12     9
 -0.0000000049     1     2    12    12
 0.0046347364     1     2    13     1
 0.0507107720     1     2    13     3
 -0.0000000016     1     2    13     4
 0.1685751401     1     2    13     5
 -0.0000000002     1     2    13    10
 -0.0000000065     1     2    13    13
 -0.0000000041     1     3     2     1
 0.0006485305     1     3     2     2
 -0.0000038647     1     3     2     4
 0.0000288740     1     3     2    10
 -0.0000141217     1     3     2    13
 -0.5891023785     1     3     3     1
 0.0000000044     1     3     3     2
 -0.0000000039     1     3     3     4
 0.0049172004     1     3     3     5
 0.0000000332     1     3     3    10
 -0.0000000344     1     3     3    13
 0.0000039255     1     3     4     1
 -0.3128692664     1     3     4     2
 -0.0010561049     1     3     4     4
 0.0000000337     1     3     4     5
 0.0051916360     1     3     4    10
 -0.0047694960     1     3     4    13
 0.0201583541     1     3     5     1
 0.0000000003     1     3     5     2
 0.0000000327     1     3     5     4
 -0.0204427695     1     3     5     5
 -0.0000001292     1     3     5    10
 0.0000001308     1     3     5    13
 -0.0170865732     1     3     6     6
 0.0000001145     1     3     6     8
 -0.0000000139     1     3     6     9
 -0.0173768497     1     3     6    11
 0.0138247626     1     3     6    12
 -0.0170865732     1     3     7     7
 0.0000000139     1     3     7     8
 0.0000001145     1     3     7     9
 -0.0138247626     1     3     7    11
 -0.0173768497     1     3     7    12
 0.0000001014     1     3     8     6
 0.0000000123     1     3     8     7
 -0.0179945774     1     3     8     8
 0.0000001187     1     3     8    11
 -0.0000000728     1     3     8    12
 -0.0000000123     1     3     9     6
 0.0000001014     1     3     9     7
 -0.0179945774     1     3     9     9
 0.0000000728     1     3     9    11
 0.0000001187     1     3     9    12
 0.0000009913     1     3    10     1
 -0.0789728279     1     3    10     2
 0.0045093471     1     3    10     4
 -0.0000001079     1     3    10     5
 -0.0183432478     1     3    10    10
 0.0187260327     1     3    10    13
 -0.0107204798     1     3    11     6
 -0.0085290539     1     3    11     7
 0.0000000843     1     3    11     8
 0.0000000518     1     3    11     9
 -0.0193145488     1     3    11    11
 0.0085290539     1     3    12     6
 -0.0107204798     1     3    12     7
 -0.0000000518     1     3    12     8
 0.0000000843     1     3    12     9
 -0.0193145488     1     3    12    12
 0.0000006385     1     3    13     1
 -0.0507107720     1     3    13     2
 -0.0033933533     1     3    13     4
 0.0000000790     1     3    13     5
 0.0132740668     1     3    13    10
 -0.0148333778     1     3    13    13
 0.0008331701     1     4     2     1
 0.0000000052     1     4     2     2
 0.0000038647     1     4     2     3
 -0.0000309543     1     4     2     5
 0.0000039255     1     4     3     1
 -0.3128609546     1     4     3     2
 0.0000000039     1     4     3     3
 0.0000000011     1     4     3     5
 0.0006415629     1     4     3    10
 -0.0013125569     1     4     3    13
 -0.5929984397     1     4     4     1
 -0.0000000039     1     4     4     2
 0.0010561049     1     4     4     3
 -0.0014050433     1     4     4     5
 -0.0000000105     1     4     4    10
 0.0000000161     1     4     4    13
 0.0000015426     1     4     5     1
 -0.1229602777     1     4     5     2
 -0.0000000327     1     4     5     3
 0.0000001232     1     4     5     5
 0.0199984780     1     4     5    10
 -0.0187613822     1     4     5    13
 0.0000001105     1     4     6     6
 -0.0172751468     1     4     6     8
 0.0021095675     1     4     6     9
 0.0000001072     1     4     6    11
 -0.0000000853     1     4     6    12
 0.0000001105     1     4     7     7
 -0.0021095676     1     4     7     8
 -0.0172751468     1     4     7     9
 0.0000000853     1     4     7    11
 0.0000001072     1     4     7    12
 -0.0169196744     1     4     8     6
 -0.0020661588     1     4     8     7
 0.0000001256     1     4     8     8
 -0.0202799926     1     4     8    11
 0.0124485348     1     4     8    12
 0.0020661588     1     4     9     6
 -0.0169196745     1     4     9     7
 0.0000001256     1     4     9     9
 -0.0124485348     1     4     9    11
 -0.0202799926     1     4     9    12
 -0.0430271412     1     4    10     1
 -0.0000000005     1     4    10     2
 -0.0045093471     1     4    10     3
 0.0180626170     1     4    10     5
 0.0000001403     1     4    10    10
 -0.0000001243     1     4    10    13
 0.0000000737     1     4    11     6
 0.0000000587     1     4    11     7
 -0.0143786078     1     4    11     8
 -0.0088260684     1     4    11     9
 0.0000001355     1     4    11    11
 -0.0000000587     1     4    12     6
 0.0000000737     1     4    12     7
 0.0088260684     1     4    12     8
 -0.0143786078     1     4    12     9
 0.0000001355     1     4    12    12
 -0.1090196199     1     4    13     1
 0.0000000016     1     4    13     2
 0.0033933533     1     4    13     3
 -0.0123138706     1     4    13     5
 -0.0000000947     1     4    13    10
 0.0000000854     1     4    13    13
 0.0000000307     1     5     2     1
 -0.0048932696     1     5     2     2
 0.0000309543     1     5     2     4
 -0.0001719047     1     5     2    10
 0.0001620753     1     5     2    13
 0.0201583541     1     5     3     1
 0.0000000003     1     5     3     2
 -0.0049172004     1     5     3     3
 -0.0000000011     1     5     3     4
 -0.0000000194     1     5     3    10
 0.0000000490     1     5     3    13
 0.0000015426     1     5     4     1
 -0.1229308884     1     5     4     2
 -0.0000000337     1     5     4     3
 0.0014050433     1     5     4     4
 0.0015282057     1     5     4    10
 -0.0059709564     1     5     4    13
 -0.5890519684     1     5     5     1
 0.0000000018     1     5     5     2
 0.0204427695     1     5     5     3
 -0.0000001232     1     5     5     4
 -0.0000000101     1     5     5    10
 -0.0000000293     1     5     5    13
 -0.0050128838     1     5     6     6
 0.0000000008     1     5     6     8
 -0.0000000001     1     5     6     9
 -0.0020648566     1     5     6    11
 0.0016427691     1     5     6    12
 -0.0050128838     1     5     7     7
 0.0000000001     1     5     7     8
 0.0000000008     1     5     7     9
 -0.0016427691     1     5     7    11
 -0.0020648566     1     5     7    12
 0.0000000046     1     5     8     6
 0.0000000006     1     5     8     7
 -0.0047343146     1     5     8     8
 0.0000000165     1     5     8    11
 -0.0000000101     1     5     8    12
 -0.0000000006     1     5     9     6
 0.0000000046     1     5     9     7
 -0.0047343146     1     5     9     9
 0.0000000101     1     5     9    11
 0.0000000165     1     5     9    12
 -0.0000035345     1     5    10     1
 0.2816037634     1     5    10     2
 0.0000001079     1     5    10     3
 -0.0180626170     1     5    10     4
 -0.0116107892     1     5    10    10
 0.0003231997     1     5    10    13
 -0.0021612199     1     5    11     6
 -0.0017194344     1     5    11     7
 0.0000000127     1     5    11     8
 0.0000000078     1     5    11     9
 -0.0059859629     1     5    11    11
 0.0017194344     1     5    12     6
 -0.0021612199     1     5    12     7
 -0.0000000078     1     5    12     8
 0.0000000127     1     5    12     9
 -0.0059859629     1     5    12    12
 0.0000021182     1     5    13     1
 -0.1685751401     1     5    13     2
 -0.0000000790     1     5    13     3
 0.0123138706     1     5    13     4
 0.0069750119     1     5    13    10
 0.0045224635     1     5    13    13
 0.0000745815     1     6     2     8
 -0.0000091076     1     6     2     9
 0.0000000110     1     6     3     8
 -0.0000000014     1     6     3     9
 -0.0063224833     1     6     3    11
 0.0050300735     1     6     3    12
 -0.0000866239     1     6     4     8
 0.0000105782     1     6     4     9
 0.0000000317     1     6     4    11
 -0.0000000252     1     6     4    12
 -0.0000000044     1     6     5     8
 0.0000000006     1     6     5     9
 0.0001816262     1     6     5    11
 -0.0001444991     1     6     5    12
 -0.5503681863     1     6     6     1
 0.0000000018     1     6     6     2
 0.0170865732     1     6     6     3
 -0.0000001105     1     6     6     4
 0.0050128838     1     6     6     5
 -0.0000000107     1     6     6    10
 -0.0000000481     1     6     6    13
 0.0000035471     1     6     8     1
 -0.2826642833     1     6     8     2
 -0.0000001014     1     6     8     3
 0.0169196744     1     6     8     4
 -0.0000000046     1     6     8     5
 0.0068177801     1     6     8    10
 0.0031512339     1     6     8    13
 -0.0000004332     1     6     9     1
 0.0345177614     1     6     9     2
 0.0000000123     1     6     9     3
 -0.0020661588     1     6     9     4
 0.0000000006     1     6     9     5
 -0.0008325583     1     6     9    10
 -0.0003848153     1     6     9    13
 -0.0000098310     1     6    10     8
 0.0000012005     1     6    10     9
 0.0000000086     1     6    10    11
 -0.0000000069     1     6    10    12
 -0.1493868424     1     6    11     1
 0.0000000017     1     6    11     2
 0.0107204798     1     6    11     3
 -0.0000000737     1     6    11     4
 0.0021612199     1     6    11     5
 -0.0000000225     1     6    11    10
 -0.0000000343     1     6    11    13
 0.1188499451     1     6    12     1
 -0.0000000014     1     6    12     2
 -0.0085290539     1     6    12     3
 0.0000000587     1     6    12     4
 -0.0017194344     1     6    12     5
 0.0000000180     1     6    12    10
 0.0000000273     1     6    12    13
 0.0000889599     1     6    13     8
 -0.0000108634     1     6    13     9
 -0.0000000037     1     6    13    11
 0.0000000030     1     6    13    12
 0.0000091076     1     7     2     8
 0.0000745815     1     7     2     9
 0.0000000014     1     7     3     8
 0.0000000110     1     7     3     9
 -0.0050300735     1     7     3    11
 -0.0063224833     1     7     3    12
 -0.0000105782     1     7     4     8
 -0.0000866239     1     7     4     9
 0.0000000252     1     7     4    11
 0.0000000317     1     7     4    12
 -0.0000000006     1     7     5     8
 -0.0000000044     1     7     5     9
 0.0001444991     1     7     5    11
 0.0001816262     1     7     5    12
 -0.5503681863     1     7     7     1
 0.0000000018     1     7     7     2
 0.0170865732     1     7     7     3
 -0.0000001105     1     7     7     4
 0.0050128838     1     7     7     5
 -0.0000000107     1     7     7    10
 -0.0000000481     1     7     7    13
 0.0000004332     1     7     8     1
 -0.0345177615     1     7     8     2
 -0.0000000123     1     7     8     3
 0.0020661588     1     7     8     4
 -0.0000000006     1     7     8     5
 0.0008325583     1     7     8    10
 0.0003848153     1     7     8    13
 0.0000035471     1     7     9     1
 -0.2826642836     1     7     9     2
 -0.0000001014     1     7     9     3
 0.0169196745     1     7     9     4
 -0.0000000046     1     7     9     5
 0.0068177801     1     7     9    10
 0.0031512339     1     7     9    13
 -0.0000012005     1     7    10     8
 -0.0000098310     1     7    10     9
 0.0000000069     1     7    10    11
 0.0000000086     1     7    10    12
 -0.1188499451     1     7    11     1
 0.0000000014     1     7    11     2
 0.0085290539     1     7    11     3
 -0.0000000587     1     7    11     4
 0.0017194344     1     7    11     5
 -0.0000000180     1     7    11    10
 -0.0000000273     1     7    11    13
 -0.1493868424     1     7    12     1
 0.0000000017     1     7    12     2
 0.0107204798     1     7    12     3
 -0.0000000737     1     7    12     4
 0.0021612199     1     7    12     5
 -0.0000000225     1     7    12    10
 -0.0000000343     1     7    12    13
 0.0000108634     1     7    13     8
 0.0000889599     1     7    13     9
 -0.0000000030     1     7    13    11
 -0.0000000037     1     7    13    12
 -0.0000745815     1     8     2     6
 -0.0000091076     1     8     2     7
 -0.0000705999     1     8     2    11
 0.0000433366     1     8     2    12
 -0.0000000110     1     8     3     6
 -0.0000000014     1     8     3     7
 0.0000000339     1     8     3    11
 -0.0000000208     1     8     3    12
 0.0000866239     1     8     4     6
 0.0000105782     1     8     4     7
 -0.0055553134     1     8     4    11
 0.0034100363     1     8     4    12
 0.0000000044     1     8     5     6
 0.0000000006     1     8     5     7
 0.0000000034     1     8     5    11
 -0.0000000020     1     8     5    12
 0.0000035471     1     8     6     1
 -0.2827301993     1     8     6     2
 -0.0000001145     1     8     6     3
 0.0172751468     1     8     6     4
 -0.0000000008     1     8     6     5
 0.0070917097     1     8     6    10
 0.0030278985     1     8     6    13
 0.0000004332     1     8     7     1
 -0.0345258109     1     8     7     2
 -0.0000000139     1     8     7     3
 0.0021095676     1     8     7     4
 -0.0000000001     1     8     7     5
 0.0008660095     1     8     7    10
 0.0003697541     1     8     7    13
 -0.5705838479     1     8     8     1
 -0.0000000015     1     8     8     2
 0.0179945774     1     8     8     3
 -0.0000001256     1     8     8     4
 0.0047343146     1     8     8     5
 -0.0000000238     1     8     8    10
 -0.0000000441     1     8     8    13
 0.0000098310     1     8    10     6
 0.0000012005     1     8    10     7
 -0.0015331796     1     8    10    11
 0.0009411167     1     8    10    12
 0.0000023273     1     8    11     1
 -0.1854519098     1     8    11     2
 -0.0000000843     1     8    11     3
 0.0143786078     1     8    11     4
 -0.0000000127     1     8    11     5
 0.0047021463     1     8    11    10
 0.0059367109     1     8    11    13
 -0.0000014285     1     8    12     1
 0.1138365589     1     8    12     2
 0.0000000518     1     8    12     3
 -0.0088260684     1     8    12     4
 0.0000000078     1     8    12     5
 -0.0028863340     1     8    12    10
 -0.0036441509     1     8    12    13
 -0.0000889599     1     8    13     6
 -0.0000108634     1     8    13     7
 0.0005629218     1     8    13    11
 -0.0003455401     1     8    13    12
 0.0000091076     1     9     2     6
 -0.0000745815     1     9     2     7
 -0.0000433366     1     9     2    11
 -0.0000705999     1     9     2    12
 0.0000000014     1     9     3     6
 -0.0000000110     1     9     3     7
 0.0000000208     1     9     3    11
 0.0000000339     1     9     3    12
 -0.0000105782     1     9     4     6
 0.0000866239     1     9     4     7
 -0.0034100363     1     9     4    11
 -0.0055553134     1     9     4    12
 -0.0000000006     1     9     5     6
 0.0000000044     1     9     5     7
 0.0000000020     1     9     5    11
 0.0000000034     1     9     5    12
 -0.0000004332     1     9     6     1
 0.0345258108     1     9     6     2
 0.0000000139     1     9     6     3
 -0.0021095675     1     9     6     4
 0.0000000001     1     9     6     5
 -0.0008660095     1     9     6    10
 -0.0003697541     1     9     6    13
 0.0000035471     1     9     7     1
 -0.2827301996     1     9     7     2
 -0.0000001145     1     9     7     3
 0.0172751468     1     9     7     4
 -0.0000000008     1     9     7     5
 0.0070917097     1     9     7    10
 0.0030278985     1     9     7    13
 -0.5705838479     1     9     9     1
 -0.0000000015     1     9     9     2
 0.0179945774     1     9     9     3
 -0.0000001256     1     9     9     4
 0.0047343146     1     9     9     5
 -0.0000000238     1     9     9    10
 -0.0000000441     1     9     9    13
 -0.0000012005     1     9    10     6
 0.0000098310     1     9    10     7
 -0.0009411167     1     9    10    11
 -0.0015331796     1     9    10    12
 0.0000014285     1     9    11     1
 -0.1138365589     1     9    11     2
 -0.0000000518     1     9    11     3
 0.0088260684     1     9    11     4
 -0.0000000078     1     9    11     5
 0.0028863340     1     9    11    10
 0.0036441509     1     9    11    13
 0.0000023273     1     9    12     1
 -0.1854519098     1     9    12     2
 -0.0000000843     1     9    12     3
 0.0143786078     1     9    12     4
 -0.0000000127     1     9    12     5
 0.0047021463     1     9    12    10
 0.0059367109     1     9    12    13
 0.0000108634     1     9    13     6
 -0.0000889599     1     9    13     7
 0.0003455401     1     9    13    11
 0.0005629218     1     9    13    12
 -0.0047444287     1    10     2     1
 -0.0000000298     1    10     2     2
 -0.0000288740     1    10     2     3
 0.0001719047     1    10     2     5
 0.0000009913     1    10     3     1
 -0.0790021813     1    10     3     2
 -0.0000000332     1    10     3     3
 -0.0006415629     1    10     3     4
 0.0000000194     1    10     3     5
 0.0052521267     1    10     3    13
 -0.0430271412     1    10     4     1
 -0.0000000005     1    10     4     2
 -0.0051916360     1    10     4     3
 0.0000000105     1    10     4     4
 -0.0015282057     1    10     4     5
 -0.0000000276     1    10     4    13
 -0.0000035345     1    10     5     1
 0.2817736663     1    10     5     2
 0.0000001292     1    10     5     3
 -0.0199984780     1    10     5     4
 0.0000000101     1    10     5     5
 -0.0068032777     1    10     5    13
 0.0000000107     1    10     6     6
 -0.0070917097     1    10     6     8
 0.0008660095     1    10     6     9
 0.0000000321     1    10     6    11
 -0.0000000255     1    10     6    12
 0.0000000107     1    10     7     7
 -0.0008660095     1    10     7     8
 -0.0070917097     1    10     7     9
 0.0000000255     1    10     7    11
 0.0000000321     1    10     7    12
 -0.0068177801     1    10     8     6
 -0.0008325583     1    10     8     7
 0.0000000238     1    10     8     8
 -0.0063143180     1    10     8    11
 0.0038759387     1    10     8    12
 0.0008325583     1    10     9     6
 -0.0068177801     1    10     9     7
 0.0000000238     1    10     9     9
 -0.0038759387     1    10     9    11
 -0.0063143180     1    10     9    12
 -0.6130537183     1    10    10     1
 -0.0000000016     1    10    10     2
 0.0183432478     1    10    10     3
 -0.0000001403     1    10    10     4
 0.0116107892     1    10    10     5
 -0.0000000741     1    10    10    13
 0.0000000225     1    10    11     6
 0.0000000180     1    10    11     7
 -0.0047021463     1    10    11     8
 -0.0028863340     1    10    11     9
 0.0000000244     1    10    11    11
 -0.0000000180     1    10    12     6
 0.0000000225     1    10    12     7
 0.0028863340     1    10    12     8
 -0.0047021463     1    10    12     9
 0.0000000244     1    10    12    12
 0.1775618713     1    10    13     1
 0.0000000002     1    10    13     2
 -0.0132740668     1    10    13     3
 0.0000000947     1    10    13     4
 -0.0069750119     1    10    13     5
 0.0000000775     1    10    13    13
 0.0000705999     1    11     2     8
 0.0000433366     1    11     2     9
 0.0063224833     1    11     3     6
 0.0050300735     1    11     3     7
 -0.0000000339     1    11     3     8
 -0.0000000208     1    11     3     9
 -0.0000000317     1    11     4     6
 -0.0000000252     1    11     4     7
 0.0055553134     1    11     4     8
 0.0034100363     1    11     4     9
 -0.0001816262     1    11     5     6
 -0.0001444991     1    11     5     7
 -0.0000000034     1    11     5     8
 -0.0000000020     1    11     5     9
 -0.1493868424     1    11     6     1
 0.0000000017     1    11     6     2
 0.0173768497     1    11     6     3
 -0.0000001072     1    11     6     4
 0.0020648566     1    11     6     5
 -0.0000000321     1    11     6    10
 -0.0000000303     1    11     6    13
 -0.1188499451     1    11     7     1
 0.0000000014     1    11     7     2
 0.0138247626     1    11     7     3
 -0.0000000853     1    11     7     4
 0.0016427691     1    11     7     5
 -0.0000000255     1    11     7    10
 -0.0000000242     1    11     7    13
 0.0000023273     1    11     8     1
 -0.1853811638     1    11     8     2
 -0.0000001187     1    11     8     3
 0.0202799926     1    11     8     4
 -0.0000000165     1    11     8     5
 0.0063143180     1    11     8    10
 0.0054368412     1    11     8    13
 0.0000014285     1    11     9     1
 -0.1137931326     1    11     9     2
 -0.0000000728     1    11     9     3
 0.0124485348     1    11     9     4
 -0.0000000101     1    11     9     5
 0.0038759387     1    11     9    10
 0.0033373142     1    11     9    13
 -0.0000000086     1    11    10     6
 -0.0000000069     1    11    10     7
 0.0015331796     1    11    10     8
 0.0009411167     1    11    10     9
 -0.5595371486     1    11    11     1
 0.0000000049     1    11    11     2
 0.0193145488     1    11    11     3
 -0.0000001355     1    11    11     4
 0.0059859629     1    11    11     5
 -0.0000000244     1    11    11    10
 -0.0000000726     1    11    11    13
 0.0000000037     1    11    13     6
 0.0000000030     1    11    13     7
 -0.0005629218     1    11    13     8
 -0.0003455401     1    11    13     9
 -0.0000433366     1    12     2     8
 0.0000705999     1    12     2     9
 -0.0050300735     1    12     3     6
 0.0063224833     1    12     3     7
 0.0000000208     1    12     3     8
 -0.0000000339     1    12     3     9
 0.0000000252     1    12     4     6
 -0.0000000317     1    12     4     7
 -0.0034100363     1    12     4     8
 0.0055553134     1    12     4     9
 0.0001444991     1    12     5     6
 -0.0001816262     1    12     5     7
 0.0000000020     1    12     5     8
 -0.0000000034     1    12     5     9
 0.1188499451     1    12     6     1
 -0.0000000014     1    12     6     2
 -0.0138247626     1    12     6     3
 0.0000000853     1    12     6     4
 -0.0016427691     1    12     6     5
 0.0000000255     1    12     6    10
 0.0000000242     1    12     6    13
 -0.1493868424     1    12     7     1
 0.0000000017     1    12     7     2
 0.0173768497     1    12     7     3
 -0.0000001072     1    12     7     4
 0.0020648566     1    12     7     5
 -0.0000000321     1    12     7    10
 -0.0000000303     1    12     7    13
 -0.0000014285     1    12     8     1
 0.1137931326     1    12     8     2
 0.0000000728     1    12     8     3
 -0.0124485348     1    12     8     4
 0.0000000101     1    12     8     5
 -0.0038759387     1    12     8    10
 -0.0033373142     1    12     8    13
 0.0000023273     1    12     9     1
 -0.1853811638     1    12     9     2
 -0.0000001187     1    12     9     3
 0.0202799926     1    12     9     4
 -0.0000000165     1    12     9     5
 0.0063143180     1    12     9    10
 0.0054368412     1    12     9    13
 0.0000000069     1    12    10     6
 -0.0000000086     1    12    10     7
 -0.0009411167     1    12    10     8
 0.0015331796     1    12    10     9
 -0.5595371486     1    12    12     1
 0.0000000049     1    12    12     2
 0.0193145488     1    12    12     3
 -0.0000001355     1    12    12     4
 0.0059859629     1    12    12     5
 -0.0000000244     1    12    12    10
 -0.0000000726     1    12    12    13
 -0.0000000030     1    12    13     6
 0.0000000037     1    12    13     7
 0.0003455401     1    12    13     8
 -0.0005629218     1    12    13     9
 0.0046347364     1    13     2     1
 0.0000000291     1    13     2     2
 0.0000141217     1    13     2     3
 -0.0001620753     1    13     2     5
 0.0000006385     1    13     3     1
 -0.0506987186     1    13     3     2
 0.0000000344     1    13     3     3
 0.0013125569     1    13     3     4
 -0.0000000490     1    13     3     5
 -0.0052521267     1    13     3    10
 -0.1090196199     1    13     4     1
 0.0000000016     1    13     4     2
 0.0047694960     1    13     4     3
 -0.0000000161     1    13     4     4
 0.0059709564     1    13     4     5
 0.0000000276     1    13     4    10
 0.0000021182     1    13     5     1
 -0.1687421442     1    13     5     2
 -0.0000001308     1    13     5     3
 0.0187613822     1    13     5     4
 0.0000000293     1    13     5     5
 0.0068032777     1    13     5    10
 0.0000000481     1    13     6     6
 -0.0030278985     1    13     6     8
 0.0003697541     1    13     6     9
 0.0000000303     1    13     6    11
 -0.0000000242     1    13     6    12
 0.0000000481     1    13     7     7
 -0.0003697541     1    13     7     8
 -0.0030278985     1    13     7     9
 0.0000000242     1    13     7    11
 0.0000000303     1    13     7    12
 -0.0031512339     1    13     8     6
 -0.0003848153     1    13     8     7
 0.0000000441     1    13     8     8
 -0.0054368412     1    13     8    11
 0.0033373142     1    13     8    12
 0.0003848153     1    13     9     6
 -0.0031512339     1    13     9     7
 0.0000000441     1    13     9     9
 -0.0033373142     1    13     9    11