&FCI NORB= 19,NELEC= 14,MS2=0,
 ORBSYM=1,1,1,1,1,1,1,1,1,1,1,1,1,1,1,1,1,1,1
 ISYM=1,
&END
 0.2198088788     1     1     2     2
 -0.0002994243     1     1     2     4
 0.0032371044     1     1     2    10
 -0.0028004800     1     1     2    14
 -0.0019952068     1     1     2    18
 0.5647467871     1     1     3     3
 -0.0000000022     1     1     3     4
 -0.0038805874     1     1     3     5
 -0.0000000003     1     1     3    10
 0.1354517619     1     1     3    13
 -0.0000000006     1     1     3    14
 -0.0917461905     1     1     3    15
 0.0000000008     1     1     3    18
 0.0152300676     1     1     3    19
 -0.0002994243     1     1     4     2
 -0.0000000022     1     1     4     3
 0.5721422025     1     1     4     4
 -0.0000000005     1     1     4     5
 0.0334812217     1     1     4    10
 -0.0000000009     1     1     4    13
 0.1199556784     1     1     4    14
 0.0000000007     1     1     4    15
 -0.1073179518     1     1     4    18
 -0.0038805874     1     1     5     3
 -0.0000000005     1     1     5     4
 0.5363405896     1     1     5     5
 0.0000000020     1     1     5    10
 -0.0975211983     1     1     5    13
 -0.0000000010     1     1     5    14
 -0.1689101321     1     1     5    15
 -0.0000000005     1     1     5    18
 -0.0291173246     1     1     5    19
 0.5322127991     1     1     6     6
 -0.0000000019     1     1     6     8
 -0.0000000008     1     1     6     9
 -0.2020862086     1     1     6    11
 0.0250079382     1     1     6    12
 -0.0000000004     1     1     6    16
 0.0000000011     1     1     6    17
 0.5322127991     1     1     7     7
 0.0000000008     1     1     7     8
 -0.0000000019     1     1     7     9
 0.0250079382     1     1     7    11
 0.2020862086     1     1     7    12
 0.0000000011     1     1     7    16
 0.0000000004     1     1     7    17
 -0.0000000019     1     1     8     6
 0.0000000008     1     1     8     7
 0.5464238690     1     1     8     8
 0.0000000013     1     1     8    11
 0.0000000004     1     1     8    12
 0.1347638310     1     1     8    16
 -0.1576225477     1     1     8    17
 -0.0000000008     1     1     9     6
 -0.0000000019     1     1     9     7
 0.5464238690     1     1     9     9
 0.0000000004     1     1     9    11
 -0.0000000013     1     1     9    12
 -0.1576225477     1     1     9    16
 -0.1347638310     1     1     9    17
 0.0032371044     1     1    10     2
 -0.0000000003     1     1    10     3
 0.0334812217     1     1    10     4
 0.0000000020     1     1    10     5
 0.5757256652     1     1    10    10
 -0.0000000012     1     1    10    13
 -0.1589338901     1     1    10    14
 -0.0000000009     1     1    10    15
 -0.1252485562     1     1    10    18
 0.0000000001     1     1    10    19
 -0.2020862086     1     1    11     6
 0.0250079382     1     1    11     7
 0.0000000013     1     1    11     8
 0.0000000004     1     1    11     9
 0.5313609784     1     1    11    11
 0.0000000008     1     1    11    16
 -0.0000000018     1     1    11    17
 0.0250079382     1     1    12     6
 0.2020862086     1     1    12     7
 0.0000000004     1     1    12     8
 -0.0000000013     1     1    12     9
 0.5313609784     1     1    12    12
 0.0000000018     1     1    12    16
 0.0000000008     1     1    12    17
 0.1354517619     1     1    13     3
 -0.0000000009     1     1    13     4
 -0.0975211983     1     1    13     5
 -0.0000000012     1     1    13    10
 0.5397190516     1     1    13    13
 0.0000000001     1     1    13    14
 0.0535329225     1     1    13    15
 0.0000000015     1     1    13    18
 0.0000599353     1     1    13    19
 -0.0028004800     1     1    14     2
 -0.0000000006     1     1    14     3
 0.1199556784     1     1    14     4
 -0.0000000010     1     1    14     5
 -0.1589338901     1     1    14    10
 0.0000000001     1     1    14    13
 0.4795262655     1     1    14    14
 0.0000000020     1     1    14    15
 0.0215374568     1     1    14    18
 0.0000000001     1     1    14    19
 -0.0917461905     1     1    15     3
 0.0000000007     1     1    15     4
 -0.1689101321     1     1    15     5
 -0.0000000009     1     1    15    10
 0.0535329225     1     1    15    13
 0.0000000020     1     1    15    14
 0.4890174569     1     1    15    15
 0.0000000001     1     1    15    18
 -0.0006515887     1     1    15    19
 -0.0000000004     1     1    16     6
 0.0000000011     1     1    16     7
 0.1347638310     1     1    16     8
 -0.1576225477     1     1    16     9
 0.0000000008     1     1    16    11
 0.0000000018     1     1    16    12
 0.5170863770     1     1    16    16
 0.0000000011     1     1    17     6
 0.0000000004     1     1    17     7
 -0.1576225477     1     1    17     8
 -0.1347638310     1     1    17     9
 -0.0000000018     1     1    17    11
 0.0000000008     1     1    17    12
 0.5170863770     1     1    17    17
 -0.0019952068     1     1    18     2
 0.0000000008     1     1    18     3
 -0.1073179518     1     1    18     4
 -0.0000000005     1     1    18     5
 -0.1252485562     1     1    18    10
 0.0000000015     1     1    18    13
 0.0215374568     1     1    18    14
 0.0000000001     1     1    18    15
 0.4891359745     1     1    18    18
 0.0000000007     1     1    18    19
 0.0152300676     1     1    19     3
 -0.0291173246     1     1    19     5
 0.0000000001     1     1    19    10
 0.0000599353     1     1    19    13
 0.0000000001     1     1    19    14
 -0.0006515887     1     1    19    15
 0.0000000007     1     1    19    18
 0.4939493549     1     1    19    19
 -0.2198088788     1     2     2     1
 -0.0001362628     1     2     2     3
 0.0030382340     1     2     2     5
 -0.0022889131     1     2     2    13
 -0.0029184129     1     2     2    15
 -0.0004399995     1     2     2    19
 0.3471022204     1     2     3     4
 0.0432005688     1     2     3    10
 0.0908796407     1     2     3    14
 -0.1125825183     1     2     3    18
 0.0002994243     1     2     4     1
 0.3471027935     1     2     4     3
 0.0784139791     1     2     4     5
 0.1326334503     1     2     4    13
 -0.1049495242     1     2     4    15
 0.0030027226     1     2     4    19
 0.0784238513     1     2     5     4
 -0.3158539289     1     2     5    10
 0.1554736788     1     2     5    14
 0.0717926352     1     2     5    18
 0.3011011812     1     2     6     8
 0.1229137415     1     2     6     9
 0.0586008501     1     2     6    16
 -0.1769465867     1     2     6    17
 -0.1229137415     1     2     7     8
 0.3011011812     1     2     7     9
 -0.1769465867     1     2     7    16
 -0.0586008501     1     2     7    17
 0.3010606100     1     2     8     6
 -0.1228971798     1     2     8     7
 -0.2059366564     1     2     8    11
 -0.0557647997     1     2     8    12
 0.1228971798     1     2     9     6
 0.3010606100     1     2     9     7
 -0.0557647997     1     2     9    11
 0.2059366564     1     2     9    12
 -0.0032371044     1     2    10     1
 0.0431946666     1     2    10     3
 -0.3157645026     1     2    10     5
 0.1922042226     1     2    10    13
 0.1524541583     1     2    10    15
 -0.0198907229     1     2    10    19
 -0.2059850730     1     2    11     8
 -0.0557779102     1     2    11     9
 -0.1346314578     1     2    11    16
 0.2838122439     1     2    11    17
 -0.0557779102     1     2    12     8
 0.2059850730     1     2    12     9
 -0.2838122439     1     2    12    16
 -0.1346314578     1     2    12    17
 0.1326259221     1     2    13     4
 0.1922725842     1     2    13    10
 -0.0187253436     1     2    13    14
 -0.2325071354     1     2    13    18
 0.0028004800     1     2    14     1
 0.0908847791     1     2    14     3
 0.1553964645     1     2    14     5
 -0.0186662773     1     2    14    13
 -0.3062894448     1     2    14    15
 -0.0230717955     1     2    14    19
 -0.1049591172     1     2    15     4
 0.1525401267     1     2    15    10
 -0.3063636862     1     2    15    14
 -0.0207852494     1     2    15    18
 0.0585846993     1     2    16     6
 -0.1768978191     1     2    16     7
 -0.1346062299     1     2    16    11
 -0.2837590618     1     2    16    12
 -0.1768978191     1     2    17     6
 -0.0585846993     1     2    17     7
 0.2837590618     1     2    17    11
 -0.1346062299     1     2    17    12
 0.0019952068     1     2    18     1
 -0.1125789505     1     2    18     3
 0.0717387583     1     2    18     5
 -0.2324658918     1     2    18    13
 -0.0207335583     1     2    18    15
 -0.1128268040     1     2    18    19
 0.0030006897     1     2    19     4
 -0.0198735411     1     2    19    10
 -0.0230869713     1     2    19    14
 -0.1128370875     1     2    19    18
 0.0001362628     1     3     2     2
 -0.0000005731     1     3     2     4
 0.0000059022     1     3     2    10
 -0.0000051384     1     3     2    14
 -0.0000035678     1     3     2    18
 -0.5647467871     1     3     3     1
 0.0022372655     1     3     3     5
 -0.0024482704     1     3     3    13
 -0.0021552182     1     3     3    15
 -0.0003621438     1     3     3    19
 0.0000000022     1     3     4     1
 -0.3471027935     1     3     4     2
 -0.0003546962     1     3     4     4
 0.0032133700     1     3     4    10
 -0.0031531290     1     3     4    14
 -0.0014219258     1     3     4    18
 0.0038805874     1     3     5     1
 -0.0176348043     1     3     5     5
 0.0142995110     1     3     5    13
 0.0186364965     1     3     5    15
 0.0012058633     1     3     5    19
 -0.0179143728     1     3     6     6
 0.0225600008     1     3     6    11
 -0.0027917744     1     3     6    12
 -0.0000000001     1     3     6    17
 -0.0179143728     1     3     7     7
 -0.0027917744     1     3     7    11
 -0.0225600008     1     3     7    12
 -0.0187420914     1     3     8     8
 -0.0000000001     1     3     8    11
 -0.0146373705     1     3     8    16
 0.0171201695     1     3     8    17
 -0.0187420914     1     3     9     9
 0.0000000001     1     3     9    12
 0.0171201695     1     3     9    16
 0.0146373705     1     3     9    17
 0.0000000003     1     3    10     1
 -0.0431946666     1     3    10     2
 0.0022554699     1     3    10     4
 -0.0198134363     1     3    10    10
 0.0182486137     1     3    10    14
 0.0123410678     1     3    10    18
 0.0150283105     1     3    11     6
 -0.0018597363     1     3    11     7
 -0.0197255263     1     3    11    11
 -0.0018597363     1     3    12     6
 -0.0150283105     1     3    12     7
 -0.0197255263     1     3    12    12
 -0.1354517619     1     3    13     1
 0.0095724422     1     3    13     5
 -0.0082175455     1     3    13    13
 -0.0101197897     1     3    13    15
 -0.0004703968     1     3    13    19
 0.0000000006     1     3    14     1
 -0.0908847791     1     3    14     2
 -0.0014545473     1     3    14     4
 0.0127115998     1     3    14    10
 -0.0125128314     1     3    14    14
 -0.0079022361     1     3    14    18
 0.0917461905     1     3    15     1
 0.0117213665     1     3    15     5
 -0.0093527923     1     3    15    13
 -0.0130925557     1     3    15    15
 -0.0007299608     1     3    15    19
 -0.0099769468     1     3    16     8
 0.0116692421     1     3    16     9
 -0.0190568274     1     3    16    16
 0.0116692421     1     3    17     8
 0.0099769468     1     3    17     9
 -0.0190568274     1     3    17    17
 -0.0000000008     1     3    18     1
 0.1125789505     1     3    18     2
 -0.0008725461     1     3    18     4
 0.0079869865     1     3    18    10
 -0.0074992424     1     3    18    14
 -0.0057471070     1     3    18    18
 -0.0152300676     1     3    19     1
 0.0009546805     1     3    19     5
 -0.0007220128     1     3    19    13
 -0.0011192918     1     3    19    15
 -0.0027648310     1     3    19    19
 0.0002994243     1     4     2     1
 0.0000005731     1     4     2     3
 -0.0000098722     1     4     2     5
 0.0000075282     1     4     2    13
 0.0000095930     1     4     2    15
 0.0000020329     1     4     2    19
 0.0000000022     1     4     3     1
 -0.3471022204     1     4     3     2
 0.0009579001     1     4     3    10
 -0.0016985817     1     4     3    14
 -0.0005493797     1     4     3    18
 -0.5721422025     1     4     4     1
 0.0003546962     1     4     4     3
 -0.0004249004     1     4     4     5
 0.0003435723     1     4     4    13
 0.0013083746     1     4     4    15
 0.0000676500     1     4     4    19
 0.0000000005     1     4     5     1
 -0.0784238513     1     4     5     2
 0.0190429545     1     4     5    10
 -0.0168039384     1     4     5    14
 -0.0128817814     1     4     5    18
 -0.0171176387     1     4     6     8
 -0.0069876611     1     4     6     9
 -0.0000000001     1     4     6    11
 -0.0070459725     1     4     6    16
 0.0212754725     1     4     6    17
 0.0069876611     1     4     7     8
 -0.0171176387     1     4     7     9
 0.0000000001     1     4     7    12
 0.0212754725     1     4     7    16
 0.0070459725     1     4     7    17
 -0.0174429320     1     4     8     6
 0.0071204504     1     4     8     7
 0.0231658301     1     4     8    11
 0.0062729865     1     4     8    12
 -0.0071204504     1     4     9     6
 -0.0174429320     1     4     9     7
 0.0062729865     1     4     9    11
 -0.0231658301     1     4     9    12
 -0.0334812217     1     4    10     1
 -0.0022554699     1     4    10     3
 0.0187977169     1     4    10     5
 -0.0167087654     1     4    10    13
 -0.0193442020     1     4    10    15
 -0.0021729629     1     4    10    19
 0.0159749798     1     4    11     8
 0.0043258037     1     4    11     9
 0.0087501316     1     4    11    16
 -0.0184458709     1     4    11    17
 0.0043258037     1     4    12     8
 -0.0159749798     1     4    12     9
 0.0184458709     1     4    12    16
 0.0087501316     1     4    12    17
 0.0000000009     1     4    13     1
 -0.1326259221     1     4    13     2
 -0.0115035165     1     4    13    10
 0.0098071065     1     4    13    14
 0.0083831020     1     4    13    18
 -0.1199556784     1     4    14     1
 0.0014545473     1     4    14     3
 -0.0115512444     1     4    14     5
 0.0104194959     1     4    14    13
 0.0119882597     1     4    14    15
 0.0013453424     1     4    14    19
 -0.0000000007     1     4    15     1
 0.1049591172     1     4    15     2
 -0.0139175431     1     4    15    10
 0.0122551018     1     4    15    14
 0.0095635918     1     4    15    18
 -0.0047599360     1     4    16     6
 0.0143727338     1     4    16     7
 0.0084195978     1     4    16    11
 0.0177490831     1     4    16    12
 0.0143727338     1     4    17     6
 0.0047599360     1     4    17     7
 -0.0177490831     1     4    17    11
 0.0084195978     1     4    17    12
 0.1073179518     1     4    18     1
 0.0008725461     1     4    18     3
 -0.0073659920     1     4    18     5
 0.0071650957     1     4    18    13
 0.0073250172     1     4    18    15
 0.0015712459     1     4    18    19
 -0.0030006897     1     4    19     2
 -0.0004139684     1     4    19    10
 0.0000857599     1     4    19    14
 0.0007723670     1     4    19    18
 -0.0030382340     1     5     2     2
 0.0000098722     1     5     2     4
 -0.0000894263     1     5     2    10
 0.0000772143     1     5     2    14
 0.0000538769     1     5     2    18
 0.0038805874     1     5     3     1
 -0.0022372655     1     5     3     3
 0.0047270688     1     5     3    13
 0.0069151300     1     5     3    15
 0.0002511828     1     5     3    19
 0.0000000005     1     5     4     1
 -0.0784139791     1     5     4     2
 0.0004249004     1     5     4     4
 0.0002452376     1     5     4    10
 -0.0052526940     1     5     4    14
 -0.0055157894     1     5     4    18
 -0.5363405896     1     5     5     1
 0.0176348043     1     5     5     3
 0.0066804243     1     5     5    13
 -0.0059464627     1     5     5    15
 0.0084890779     1     5     5    19
 -0.0031746637     1     5     6     6
 0.0016403593     1     5     6    11
 -0.0002029926     1     5     6    12
 -0.0031746637     1     5     7     7
 -0.0002029926     1     5     7    11
 -0.0016403593     1     5     7    12
 -0.0032133594     1     5     8     8
 -0.0021209583     1     5     8    16
 0.0024807164     1     5     8    17
 -0.0032133594     1     5     9     9
 0.0024807164     1     5     9    16
 0.0021209583     1     5     9    17
 -0.0000000020     1     5    10     1
 0.3157645026     1     5    10     2
 -0.0187977169     1     5    10     4
 -0.0072241448     1     5    10    10
 -0.0030630028     1     5    10    14
 0.0126691725     1     5    10    18
 0.0020044398     1     5    11     6
 -0.0002480472     1     5    11     7
 -0.0042484108     1     5    11    11
 -0.0002480472     1     5    12     6
 -0.0020044398     1     5    12     7
 -0.0042484108     1     5    12    12
 0.0975211983     1     5    13     1
 -0.0095724422     1     5    13     3
 -0.0126075481     1     5    13    13
 0.0017057510     1     5    13    15
 -0.0035830930     1     5    13    19
 0.0000000010     1     5    14     1
 -0.1553964645     1     5    14     2
 0.0115512444     1     5    14     4
 0.0037253378     1     5    14    10
 0.0062849505     1     5    14    14
 -0.0091767187     1     5    14    18
 0.1689101321     1     5    15     1
 -0.0117213665     1     5    15     3
 -0.0107382875     1     5    15    13
 0.0055478946     1     5    15    15
 -0.0037515660     1     5    15    19
 -0.0012537126     1     5    16     8
 0.0014663681     1     5    16     9
 -0.0028203267     1     5    16    16
 0.0014663681     1     5    17     8
 0.0012537126     1     5    17     9
 -0.0028203267     1     5    17    17
 0.0000000005     1     5    18     1
 -0.0717387583     1     5    18     2
 0.0073659920     1     5    18     4
 0.0023146273     1     5    18    10
 0.0050654129     1     5    18    14
 -0.0074645857     1     5    18    18
 0.0291173246     1     5    19     1
 -0.0009546805     1     5    19     3
 0.0034382825     1     5    19    13
 0.0063095842     1     5    19    15
 -0.0011703122     1     5    19    19
 0.0000405712     1     6     2     8
 0.0000165617     1     6     2     9
 0.0000161508     1     6     2    16
 -0.0000487676     1     6     2    17
 0.0075316903     1     6     3    11
 -0.0009320381     1     6     3    12
 -0.0000000001     1     6     3    17
 0.0003252933     1     6     4     8
 0.0001327893     1     6     4     9
 -0.0000000001     1     6     4    11
 -0.0022860365     1     6     4    16
 0.0069027387     1     6     4    17
 -0.0003640805     1     6     5    11
 0.0000450546     1     6     5    12
 -0.5322127991     1     6     6     1
 0.0179143728     1     6     6     3
 0.0031746637     1     6     6     5
 0.0074294746     1     6     6    13
 -0.0073408824     1     6     6    15
 -0.0037375708     1     6     6    19
 0.0000000019     1     6     8     1
 -0.3010606100     1     6     8     2
 0.0174429320     1     6     8     4
 0.0039849499     1     6     8    10
 0.0050335897     1     6     8    14
 -0.0065022214     1     6     8    18
 0.0000000008     1     6     9     1
 -0.1228971798     1     6     9     2
 0.0071204504     1     6     9     4
 0.0016267127     1     6     9    10
 0.0020547822     1     6     9    14
 -0.0026542983     1     6     9    18
 -0.0000570674     1     6    10     8
 -0.0000232957     1     6    10     9
 -0.0001461420     1     6    10    16
 0.0004412789     1     6    10    17
 0.2020862086     1     6    11     1
 -0.0150283105     1     6    11     3
 -0.0020044398     1     6    11     5
 -0.0134408478     1     6    11    13
 0.0085944476     1     6    11    15
 0.0011391109     1     6    11    19
 -0.0250079382     1     6    12     1
 0.0018597363     1     6    12     3
 0.0002480472     1     6    12     5
 0.0016632896     1     6    12    13
 -0.0010635531     1     6    12    15
 -0.0001409637     1     6    12    19
 -0.0017812129     1     6    13    11
 0.0002204231     1     6    13    12
 -0.0000116237     1     6    14     8
 -0.0000047449     1     6    14     9
 0.0003329910     1     6    14    16
 -0.0010054738     1     6    14    17
 0.0014860906     1     6    15    11
 -0.0001839021     1     6    15    12
 0.0000000004     1     6    16     1
 -0.0585846993     1     6    16     2
 0.0047599360     1     6    16     4
 0.0008449921     1     6    16    10
 0.0030857589     1     6    16    14
 -0.0034888525     1     6    16    18
 -0.0000000011     1     6    17     1
 0.1768978191     1     6    17     2
 -0.0143727338     1     6    17     4
 -0.0025514728     1     6    17    10
 -0.0093175185     1     6    17    14
 0.0105346687     1     6    17    18
 0.0002492239     1     6    18     8
 0.0001017367     1     6    18     9
 -0.0010627180     1     6    18    16
 0.0032089010     1     6    18    17
 -0.0035241767     1     6    19    11
 0.0004361129     1     6    19    12
 -0.0000165617     1     7     2     8
 0.0000405712     1     7     2     9
 -0.0000487676     1     7     2    16
 -0.0000161508     1     7     2    17
 -0.0009320381     1     7     3    11
 -0.0075316903     1     7     3    12
 -0.0001327893     1     7     4     8
 0.0003252933     1     7     4     9
 0.0000000001     1     7     4    12
 0.0069027387     1     7     4    16
 0.0022860365     1     7     4    17
 0.0000450546     1     7     5    11
 0.0003640805     1     7     5    12
 -0.5322127991     1     7     7     1
 0.0179143728     1     7     7     3
 0.0031746637     1     7     7     5
 0.0074294746     1     7     7    13
 -0.0073408824     1     7     7    15
 -0.0037375708     1     7     7    19
 -0.0000000008     1     7     8     1
 0.1228971798     1     7     8     2
 -0.0071204504     1     7     8     4
 -0.0016267127     1     7     8    10
 -0.0020547822     1     7     8    14
 0.0026542983     1     7     8    18
 0.0000000019     1     7     9     1
 -0.3010606100     1     7     9     2
 0.0174429320     1     7     9     4
 0.0039849499     1     7     9    10
 0.0050335897     1     7     9    14
 -0.0065022214     1     7     9    18
 0.0000232957     1     7    10     8
 -0.0000570674     1     7    10     9
 0.0004412789     1     7    10    16
 0.0001461420     1     7    10    17
 -0.0250079382     1     7    11     1
 0.0018597363     1     7    11     3
 0.0002480472     1     7    11     5
 0.0016632896     1     7    11    13
 -0.0010635531     1     7    11    15
 -0.0001409637     1     7    11    19
 -0.2020862086     1     7    12     1
 0.0150283105     1     7    12     3
 0.0020044398     1     7    12     5
 0.0134408478     1     7    12    13
 -0.0085944476     1     7    12    15
 -0.0011391109     1     7    12    19
 0.0002204231     1     7    13    11
 0.0017812129     1     7    13    12
 0.0000047449     1     7    14     8
 -0.0000116237     1     7    14     9
 -0.0010054738     1     7    14    16
 -0.0003329910     1     7    14    17
 -0.0001839021     1     7    15    11
 -0.0014860906     1     7    15    12
 -0.0000000011     1     7    16     1
 0.1768978191     1     7    16     2
 -0.0143727338     1     7    16     4
 -0.0025514728     1     7    16    10
 -0.0093175185     1     7    16    14
 0.0105346687     1     7    16    18
 -0.0000000004     1     7    17     1
 0.0585846993     1     7    17     2
 -0.0047599360     1     7    17     4
 -0.0008449921     1     7    17    10
 -0.0030857589     1     7    17    14
 0.0034888525     1     7    17    18
 -0.0001017367     1     7    18     8
 0.0002492239     1     7    18     9
 0.0032089010     1     7    18    16
 0.0010627180     1     7    18    17
 0.0004361129     1     7    19    11
 0.0035241767     1     7    19    12
 -0.0000405712     1     8     2     6
 0.0000165617     1     8     2     7
 0.0000484166     1     8     2    11
 0.0000131105     1     8     2    12
 -0.0000000001     1     8     3    11
 -0.0046604237     1     8     3    16
 0.0054509274     1     8     3    17
 -0.0003252933     1     8     4     6
 0.0001327893     1     8     4     7
 0.0071908503     1     8     4    11
 0.0019471828     1     8     4    12
 -0.0008672457     1     8     5    16
 0.0010143483     1     8     5    17
 0.0000000019     1     8     6     1
 -0.3011011812     1     8     6     2
 0.0171176387     1     8     6     4
 0.0040420173     1     8     6    10
 0.0050452134     1     8     6    14
 -0.0067514453     1     8     6    18
 -0.0000000008     1     8     7     1
 0.1229137415     1     8     7     2
 -0.0069876611     1     8     7     4
 -0.0016500084     1     8     7    10
 -0.0020595271     1     8     7    14
 0.0027560350     1     8     7    18
 -0.5464238690     1     8     8     1
 0.0187420914     1     8     8     3
 0.0032133594     1     8     8     5
 0.0091818864     1     8     8    13
 -0.0072879342     1     8     8    15
 -0.0037460523     1     8     8    19
 0.0000570674     1     8    10     6
 -0.0000232957     1     8    10     7
 0.0010327419     1     8    10    11
 0.0002796522     1     8    10    12
 -0.0000000013     1     8    11     1
 0.2059850730     1     8    11     2
 -0.0159749798     1     8    11     4
 -0.0029874757     1     8    11    10
 -0.0090234289     1     8    11    14
 0.0111569767     1     8    11    18
 -0.0000000004     1     8    12     1
 0.0557779102     1     8    12     2
 -0.0043258037     1     8    12     4
 -0.0008089672     1     8    12    10
 -0.0024434198     1     8    12    14
 0.0030211551     1     8    12    18
 0.0004052482     1     8    13    16
 -0.0004739865     1     8    13    17
 0.0000116237     1     8    14     6
 -0.0000047449     1     8    14     7
 -0.0009811300     1     8    14    11
 -0.0002656765     1     8    14    12
 -0.0008223603     1     8    15    16
 0.0009618496     1     8    15    17
 -0.1347638310     1     8    16     1
 0.0099769468     1     8    16     3
 0.0012537126     1     8    16     5
 0.0081215524     1     8    16    13
 -0.0063510128     1     8    16    15
 -0.0006830056     1     8    16    19
 0.1576225477     1     8    17     1
 -0.0116692421     1     8    17     3
 -0.0014663681     1     8    17     5
 -0.0094991347     1     8    17    13
 0.0074282753     1     8    17    15
 0.0007988574     1     8    17    19
 -0.0002492239     1     8    18     6
 0.0001017367     1     8    18     7
 0.0030188887     1     8    18    11
 0.0008174734     1     8    18    12
 0.0023625198     1     8    19    16
 -0.0027632519     1     8    19    17
 -0.0000165617     1     9     2     6
 -0.0000405712     1     9     2     7
 0.0000131105     1     9     2    11
 -0.0000484166     1     9     2    12
 0.0000000001     1     9     3    12
 0.0054509274     1     9     3    16
 0.0046604237     1     9     3    17
 -0.0001327893     1     9     4     6
 -0.0003252933     1     9     4     7
 0.0019471828     1     9     4    11
 -0.0071908503     1     9     4    12
 0.0010143483     1     9     5    16
 0.0008672457     1     9     5    17
 0.0000000008     1     9     6     1
 -0.1229137415     1     9     6     2
 0.0069876611     1     9     6     4
 0.0016500084     1     9     6    10
 0.0020595271     1     9     6    14
 -0.0027560350     1     9     6    18
 0.0000000019     1     9     7     1
 -0.3011011812     1     9     7     2
 0.0171176387     1     9     7     4
 0.0040420173     1     9     7    10
 0.0050452134     1     9     7    14
 -0.0067514453     1     9     7    18
 -0.5464238690     1     9     9     1
 0.0187420914     1     9     9     3
 0.0032133594     1     9     9     5
 0.0091818864     1     9     9    13
 -0.0072879342     1     9     9    15
 -0.0037460523     1     9     9    19
 0.0000232957     1     9    10     6
 0.0000570674     1     9    10     7
 0.0002796522     1     9    10    11
 -0.0010327419     1     9    10    12
 -0.0000000004     1     9    11     1
 0.0557779102     1     9    11     2
 -0.0043258037     1     9    11     4
 -0.0008089672     1     9    11    10
 -0.0024434198     1     9    11    14
 0.0030211551     1     9    11    18
 0.0000000013     1     9    12     1
 -0.2059850730     1     9    12     2
 0.0159749798     1     9    12     4
 0.0029874757     1     9    12    10
 0.0090234289     1     9    12    14
 -0.0111569767     1     9    12    18
 -0.0004739865     1     9    13    16
 -0.0004052482     1     9    13    17
 0.0000047449     1     9    14     6
 0.0000116237     1     9    14     7
 -0.0002656765     1     9    14    11
 0.0009811300     1     9    14    12
 0.0009618496     1     9    15    16
 0.0008223603     1     9    15    17
 0.1576225477     1     9    16     1
 -0.0116692421     1     9    16     3
 -0.0014663681     1     9    16     5
 -0.0094991347     1     9    16    13
 0.0074282753     1     9    16    15
 0.0007988574     1     9    16    19
 0.1347638310     1     9    17     1
 -0.0099769468     1     9    17     3
 -0.0012537126     1     9    17     5
 -0.0081215524     1     9    17    13
 0.0063510128     1     9    17    15
 0.0006830056     1     9    17    19
 -0.0001017367     1     9    18     6
 -0.0002492239     1     9    18     7
 0.0008174734     1     9    18    11
 -0.0030188887     1     9    18    12
 -0.0027632519     1     9    19    16
 -0.0023625198     1     9    19    17
 -0.0032371044     1    10     2     1
 -0.0000059022     1    10     2     3
 0.0000894263     1    10     2     5
 -0.0000683616     1    10     2    13
 -0.0000859684     1    10     2    15
 -0.0000171818     1    10     2    19
 0.0000000003     1    10     3     1
 -0.0432005688     1    10     3     2
 -0.0009579001     1    10     3     4
 0.0055370139     1    10     3    14
 0.0043540813     1    10     3    18