&FCI NORB= 13,NELEC= 14,MS2=0,
 ORBSYM=1,1,1,1,1,1,1,1,1,1,1,1,1
 ISYM=1,
&END
 0.2102506921     1     1     2     2
 -0.0002411580     1     1     2     4
 -0.0029479710     1     1     2    10
 0.5604231590     1     1     3     3
 -0.0000000002     1     1     3     4
 -0.0029218336     1     1     3     5
 0.1143361687     1     1     3    13
 -0.0002411580     1     1     4     2
 -0.0000000002     1     1     4     3
 0.5674370681     1     1     4     4
 -0.0304723280     1     1     4    10
 -0.0000000001     1     1     4    13
 -0.0029218336     1     1     5     3
 0.5291169671     1     1     5     5
 -0.0000000001     1     1     5    10
 -0.1297495892     1     1     5    13
 0.5287134286     1     1     6     6
 -0.0000000001     1     1     6     8
 -0.0000000001     1     1     6     9
 0.2035032018     1     1     6    11
 0.0092453080     1     1     6    12
 0.5287134286     1     1     7     7
 -0.0000000001     1     1     7     8
 0.0000000001     1     1     7     9
 -0.0092453080     1     1     7    11
 0.2035032018     1     1     7    12
 -0.0000000001     1     1     8     6
 -0.0000000001     1     1     8     7
 0.5412441735     1     1     8     8
 -0.0000000001     1     1     8    12
 -0.0000000001     1     1     9     6
 0.0000000001     1     1     9     7
 0.5412441735     1     1     9     9
 -0.0000000001     1     1     9    11
 -0.0029479710     1     1    10     2
 -0.0304723280     1     1    10     4
 -0.0000000001     1     1    10     5
 0.5676887261     1     1    10    10
 0.0000000001     1     1    10    13
 0.2035032018     1     1    11     6
 -0.0092453080     1     1    11     7
 -0.0000000001     1     1    11     9
 0.5257046794     1     1    11    11
 0.0092453080     1     1    12     6
 0.2035032018     1     1    12     7
 -0.0000000001     1     1    12     8
 0.5257046794     1     1    12    12
 0.1143361687     1     1    13     3
 -0.0000000001     1     1    13     4
 -0.1297495892     1     1    13     5
 0.0000000001     1     1    13    10
 0.5483851438     1     1    13    13
 -0.2102506921     1     2     2     1
 -0.0000986730     1     2     2     3
 0.0027659978     1     2     2     5
 -0.0025435754     1     2     2    13
 0.3527646303     1     2     3     4
 -0.0364136419     1     2     3    10
 0.0002411580     1     2     4     1
 0.3527649850     1     2     4     3
 0.0699940817     1     2     4     5
 0.1108339832     1     2     4    13
 0.0700016236     1     2     5     4
 0.3201270053     1     2     5    10
 0.1796124044     1     2     6     8
 0.2765388485     1     2     6     9
 0.2765388485     1     2     7     8
 -0.1796124044     1     2     7     9
 0.1795915145     1     2     8     6
 0.2765066855     1     2     8     7
 0.1072829560     1     2     8    11
 0.1828404901     1     2     8    12
 0.2765066855     1     2     9     6
 -0.1795915145     1     2     9     7
 0.1828404901     1     2     9    11
 -0.1072829560     1     2     9    12
 0.0029479710     1     2    10     1
 -0.0364094621     1     2    10     3
 0.3200494262     1     2    10     5
 -0.2145353652     1     2    10    13
 0.1073050485     1     2    11     8
 0.1828781420     1     2    11     9
 0.1828781420     1     2    12     8
 -0.1073050485     1     2    12     9
 0.1108270209     1     2    13     4
 -0.2146074697     1     2    13    10
 0.0000986730     1     3     2     2
 -0.0000003547     1     3     2     4
 -0.0000041798     1     3     2    10
 -0.5604231590     1     3     3     1
 0.0019206868     1     3     3     5
 -0.0024375773     1     3     3    13
 0.0000000002     1     3     4     1
 -0.3527649850     1     3     4     2
 -0.0002817590     1     3     4     4
 -0.0028760546     1     3     4    10
 0.0029218336     1     3     5     1
 -0.0174796819     1     3     5     5
 0.0174144267     1     3     5    13
 -0.0180474332     1     3     6     6
 -0.0227450070     1     3     6    11
 -0.0010333233     1     3     6    12
 -0.0180474332     1     3     7     7
 0.0010333233     1     3     7    11
 -0.0227450070     1     3     7    12
 -0.0187567166     1     3     8     8
 -0.0187567166     1     3     9     9
 0.0364094621     1     3    10     2
 -0.0019054193     1     3    10     4
 -0.0198004095     1     3    10    10
 -0.0152064205     1     3    11     6
 0.0006908394     1     3    11     7
 -0.0197487254     1     3    11    11
 -0.0006908394     1     3    12     6
 -0.0152064205     1     3    12     7
 -0.0197487254     1     3    12    12
 -0.1143361687     1     3    13     1
 0.0116277684     1     3    13     5
 -0.0120719031     1     3    13    13
 0.0002411580     1     4     2     1
 0.0000003547     1     4     2     3
 -0.0000075419     1     4     2     5
 0.0000069623     1     4     2    13
 0.0000000002     1     4     3     1
 -0.3527646303     1     4     3     2
 -0.0009706353     1     4     3    10
 -0.5674370681     1     4     4     1
 0.0002817590     1     4     4     3
 -0.0003025219     1     4     4     5
 0.0003783272     1     4     4    13
 -0.0700016236     1     4     5     2
 -0.0188584839     1     4     5    10
 -0.0100969928     1     4     6     8
 -0.0155457569     1     4     6     9
 -0.0155457569     1     4     7     8
 0.0100969928     1     4     7     9
 -0.0102680928     1     4     8     6
 -0.0158091897     1     4     8     7
 -0.0120826238     1     4     8    11
 -0.0205922072     1     4     8    12
 -0.0158091897     1     4     9     6
 0.0102680928     1     4     9     7
 -0.0205922072     1     4     9    11
 0.0120826238     1     4     9    12
 0.0304723280     1     4    10     1
 0.0019054193     1     4    10     3
 -0.0187091922     1     4    10     5
 0.0197514994     1     4    10    13
 -0.0083163263     1     4    11     8
 -0.0141733713     1     4    11     9
 -0.0141733713     1     4    12     8
 0.0083163263     1     4    12     9
 0.0000000001     1     4    13     1
 -0.1108270209     1     4    13     2
 0.0137916381     1     4    13    10
 -0.0027659978     1     5     2     2
 0.0000075419     1     5     2     4
 0.0000775791     1     5     2    10
 0.0029218336     1     5     3     1
 -0.0019206868     1     5     3     3
 0.0057866583     1     5     3    13
 -0.0699940817     1     5     4     2
 0.0003025219     1     5     4     4
 -0.0001492917     1     5     4    10
 -0.5291169671     1     5     5     1
 0.0174796819     1     5     5     3
 0.0052479912     1     5     5    13
 -0.0028407972     1     5     6     6
 -0.0014792586     1     5     6    11
 -0.0000672038     1     5     6    12
 -0.0028407972     1     5     7     7
 0.0000672038     1     5     7    11
 -0.0014792586     1     5     7    12
 -0.0028777658     1     5     8     8
 -0.0028777658     1     5     9     9
 0.0000000001     1     5    10     1
 -0.3200494262     1     5    10     2
 0.0187091922     1     5    10     4
 -0.0064218846     1     5    10    10
 -0.0017920238     1     5    11     6
 0.0000814130     1     5    11     7
 -0.0037939530     1     5    11    11
 -0.0000814130     1     5    12     6
 -0.0017920238     1     5    12     7
 -0.0037939530     1     5    12    12
 0.1297495892     1     5    13     1
 -0.0116277684     1     5    13     3
 -0.0131623506     1     5    13    13
 0.0000208899     1     6     2     8
 0.0000321630     1     6     2     9
 -0.0075385865     1     6     3    11
 -0.0003424839     1     6     3    12
 0.0001711000     1     6     4     8
 0.0002634328     1     6     4     9
 0.0003127652     1     6     5    11
 0.0000142092     1     6     5    12
 -0.5287134286     1     6     6     1
 0.0180474332     1     6     6     3
 0.0028407972     1     6     6     5
 0.0060631954     1     6     6    13
 0.0000000001     1     6     8     1
 -0.1795915145     1     6     8     2
 0.0102680928     1     6     8     4
 -0.0020884162     1     6     8    10
 0.0000000001     1     6     9     1
 -0.2765066855     1     6     9     2
 0.0158091897     1     6     9     4
 -0.0032154138     1     6     9    10
 0.0000254961     1     6    10     8
 0.0000392549     1     6    10     9
 -0.2035032018     1     6    11     1
 0.0152064205     1     6    11     3
 0.0017920238     1     6    11     5
 0.0114547265     1     6    11    13
 -0.0092453080     1     6    12     1
 0.0006908394     1     6    12     3
 0.0000814130     1     6    12     5
 0.0005203971     1     6    12    13
 0.0013987691     1     6    13    11
 0.0000635472     1     6    13    12
 0.0000321630     1     7     2     8
 -0.0000208899     1     7     2     9
 0.0003424839     1     7     3    11
 -0.0075385865     1     7     3    12
 0.0002634328     1     7     4     8
 -0.0001711000     1     7     4     9
 -0.0000142092     1     7     5    11
 0.0003127652     1     7     5    12
 -0.5287134286     1     7     7     1
 0.0180474332     1     7     7     3
 0.0028407972     1     7     7     5
 0.0060631954     1     7     7    13
 0.0000000001     1     7     8     1
 -0.2765066855     1     7     8     2
 0.0158091897     1     7     8     4
 -0.0032154138     1     7     8    10
 -0.0000000001     1     7     9     1
 0.1795915145     1     7     9     2
 -0.0102680928     1     7     9     4
 0.0020884162     1     7     9    10
 0.0000392549     1     7    10     8
 -0.0000254961     1     7    10     9
 0.0092453080     1     7    11     1
 -0.0006908394     1     7    11     3
 -0.0000814130     1     7    11     5
 -0.0005203971     1     7    11    13
 -0.2035032018     1     7    12     1
 0.0152064205     1     7    12     3
 0.0017920238     1     7    12     5
 0.0114547265     1     7    12    13
 -0.0000635472     1     7    13    11
 0.0013987691     1     7    13    12
 -0.0000208899     1     8     2     6
 -0.0000321630     1     8     2     7
 -0.0000220925     1     8     2    11
 -0.0000376519     1     8     2    12
 -0.0001711000     1     8     4     6
 -0.0002634328     1     8     4     7
 -0.0037662975     1     8     4    11
 -0.0064188359     1     8     4    12
 0.0000000001     1     8     6     1
 -0.1796124044     1     8     6     2
 0.0100969928     1     8     6     4
 -0.0021139123     1     8     6    10
 0.0000000001     1     8     7     1
 -0.2765388485     1     8     7     2
 0.0155457569     1     8     7     4
 -0.0032546687     1     8     7    10
 -0.5412441735     1     8     8     1
 0.0187567166     1     8     8     3
 0.0028777658     1     8     8     5
 0.0075242905     1     8     8    13
 -0.0000254961     1     8    10     6
 -0.0000392549     1     8    10     7
 0.0004669227     1     8    10    11
 0.0007957683     1     8    10    12
 -0.1073050485     1     8    11     2
 0.0083163263     1     8    11     4
 -0.0013581030     1     8    11    10
 0.0000000001     1     8    12     1
 -0.1828781420     1     8    12     2
 0.0141733713     1     8    12     4
 -0.0023145915     1     8    12    10
 -0.0000321630     1     9     2     6
 0.0000208899     1     9     2     7
 -0.0000376519     1     9     2    11
 0.0000220925     1     9     2    12
 -0.0002634328     1     9     4     6
 0.0001711000     1     9     4     7
 -0.0064188359     1     9     4    11
 0.0037662975     1     9     4    12
 0.0000000001     1     9     6     1
 -0.2765388485     1     9     6     2
 0.0155457569     1     9     6     4
 -0.0032546687     1     9     6    10
 -0.0000000001     1     9     7     1
 0.1796124044     1     9     7     2
 -0.0100969928     1     9     7     4
 0.0021139123     1     9     7    10
 -0.5412441735     1     9     9     1
 0.0187567166     1     9     9     3
 0.0028777658     1     9     9     5
 0.0075242905     1     9     9    13
 -0.0000392549     1     9    10     6
 0.0000254961     1     9    10     7
 0.0007957683     1     9    10    11
 -0.0004669227     1     9    10    12
 0.0000000001     1     9    11     1
 -0.1828781420     1     9    11     2
 0.0141733713     1     9    11     4
 -0.0023145915     1     9    11    10
 0.1073050485     1     9    12     2
 -0.0083163263     1     9    12     4
 0.0013581030     1     9    12    10
 0.0029479710     1    10     2     1
 0.0000041798     1    10     2     3
 -0.0000775791     1    10     2     5
 0.0000721045     1    10     2    13
 0.0364136419     1    10     3     2
 0.0009706353     1    10     3     4
 0.0304723280     1    10     4     1
 0.0028760546     1    10     4     3
 0.0001492917     1    10     4     5
 0.0059598613     1    10     4    13
 0.0000000001     1    10     5     1
 -0.3201270053     1    10     5     2
 0.0188584839     1    10     5     4
 0.0021139123     1    10     6     8
 0.0032546687     1    10     6     9
 0.0032546687     1    10     7     8
 -0.0021139123     1    10     7     9
 0.0020884162     1    10     8     6
 0.0032154138     1    10     8     7
 0.0018250257     1    10     8    11
 0.0031103598     1    10     8    12
 0.0032154138     1    10     9     6
 -0.0020884162     1    10     9     7
 0.0031103598     1    10     9    11
 -0.0018250257     1    10     9    12
 -0.5676887261     1    10    10     1
 0.0198004095     1    10    10     3
 0.0064218846     1    10    10     5
 0.0044171465     1    10    10    13
 0.0013581030     1    10    11     8
 0.0023145915     1    10    11     9
 0.0023145915     1    10    12     8
 -0.0013581030     1    10    12     9
 -0.0000000001     1    10    13     1
 0.2146074697     1    10    13     2
 -0.0137916381     1    10    13     4
 0.0000220925     1    11     2     8
 0.0000376519     1    11     2     9
 0.0075385865     1    11     3     6
 -0.0003424839     1    11     3     7
 0.0037662975     1    11     4     8
 0.0064188359     1    11     4     9
 -0.0003127652     1    11     5     6
 0.0000142092     1    11     5     7
 -0.2035032018     1    11     6     1
 0.0227450070     1    11     6     3
 0.0014792586     1    11     6     5
 0.0100559574     1    11     6    13
 0.0092453080     1    11     7     1
 -0.0010333233     1    11     7     3
 -0.0000672038     1    11     7     5
 -0.0004568499     1    11     7    13
 -0.1072829560     1    11     8     2
 0.0120826238     1    11     8     4
 -0.0018250257     1    11     8    10
 0.0000000001     1    11     9     1
 -0.1828404901     1    11     9     2
 0.0205922072     1    11     9     4
 -0.0031103598     1    11     9    10
 -0.0004669227     1    11    10     8
 -0.0007957683     1    11    10     9
 -0.5257046794     1    11    11     1
 0.0197487254     1    11    11     3
 0.0037939530     1    11    11     5
 0.0133243807     1    11    11    13
 -0.0013987691     1    11    13     6
 0.0000635472     1    11    13     7
 0.0000376519     1    12     2     8
 -0.0000220925     1    12     2     9
 0.0003424839     1    12     3     6
 0.0075385865     1    12     3     7
 0.0064188359     1    12     4     8
 -0.0037662975     1    12     4     9
 -0.0000142092     1    12     5     6
 -0.0003127652     1    12     5     7
 -0.0092453080     1    12     6     1
 0.0010333233     1    12     6     3
 0.0000672038     1    12     6     5
 0.0004568499     1    12     6    13
 -0.2035032018     1    12     7     1
 0.0227450070     1    12     7     3
 0.0014792586     1    12     7     5
 0.0100559574     1    12     7    13
 0.0000000001     1    12     8     1
 -0.1828404901     1    12     8     2
 0.0205922072     1    12     8     4
 -0.0031103598     1    12     8    10
 0.1072829560     1    12     9     2
 -0.0120826238     1    12     9     4
 0.0018250257     1    12     9    10
 -0.0007957683     1    12    10     8
 0.0004669227     1    12    10     9
 -0.5257046794     1    12    12     1
 0.0197487254     1    12    12     3
 0.0037939530     1    12    12     5
 0.0133243807     1    12    12    13
 -0.0000635472     1    12    13     6
 -0.0013987691     1    12    13     7
 0.0025435754     1    13     2     2
 -0.0000069623     1    13     2     4
 -0.0000721045     1    13     2    10
 -0.1143361687     1    13     3     1
 0.0024375773     1    13     3     3
 -0.0057866583     1    13     3     5
 0.0000000001     1    13     4     1
 -0.1108339832     1    13     4     2
 -0.0003783272     1    13     4     4
 -0.0059598613     1    13     4    10
 0.1297495892     1    13     5     1
 -0.0174144267     1    13     5     3
 -0.0052479912     1    13     5     5
 -0.0060631954     1    13     6     6
 -0.0100559574     1    13     6    11
 -0.0004568499     1    13     6    12
 -0.0060631954     1    13     7     7
 0.0004568499     1    13     7    11
 -0.0100559574     1    13     7    12
 -0.0075242905     1    13     8     8
 -0.0075242905     1    13     9     9
 -0.0000000001     1    13    10     1
 0.2145353652     1    13    10     2
 -0.0197514994     1    13    10     4
 -0.0044171465     1    13    10    10
 -0.0114547265     1    13    11     6
 0.0005203971     1    13    11     7
 -0.0133243807     1    13    11    11
 -0.0005203971     1    13    12     6
 -0.0114547265     1    13    12     7
 -0.0133243807     1    13    12    12
 -0.5483851438     1    13    13     1
 0.0120719031     1    13    13     3
 0.0131623506     1    13    13     5
 -0.2102506921     2     1     1     2
 0.0002411580     2     1     1     4
 0.0029479710     2     1     1    10
 -0.0000986730     2     1     3     2
 0.3527649850     2     1     3     4
 -0.0364094621     2     1     3    10
 0.3527646303     2     1     4     3
 0.0700016236     2     1     4     5
 0.1108270209     2     1     4    13
 0.0027659978     2     1     5     2
 0.0699940817     2     1     5     4
 0.3200494262     2     1     5    10
 0.1795915145     2     1     6     8
 0.2765066855     2     1     6     9
 0.2765066855     2     1     7     8
 -0.1795915145     2     1     7     9
 0.1796124044     2     1     8     6
 0.2765388485     2     1     8     7
 0.1073050485     2     1     8    11
 0.1828781420     2     1     8    12
 0.2765388485     2     1     9     6
 -0.1796124044     2     1     9     7
 0.1828781420     2     1     9    11
 -0.1073050485     2     1     9    12
 -0.0364136419     2     1    10     3
 0.3201270053     2     1    10     5
 -0.2146074697     2     1    10    13
 0.1072829560     2     1    11     8
 0.1828404901     2     1    11     9
 0.1828404901     2     1    12     8
 -0.1072829560     2     1    12     9
 -0.0025435754     2     1    13     2
 0.1108339832     2     1    13     4
 -0.2145353652     2     1    13    10
 0.2102506921     2     2     1     1
 0.0000986730     2     2     1     3
 -0.0027659978     2     2     1     5
 0.0025435754     2     2     1    13
 0.0000986730     2     2     3     1
 0.5604235489     2     2     3     3
 0.0000000002     2     2     3     4
 -0.0029257345     2     2     3     5
 0.1143405310     2     2     3    13
 0.0000000002     2     2     4     3
 0.5674365905     2     2     4     4
 -0.0304807833     2     2     4    10
 0.0000000001     2     2     4    13
 -0.0027659978     2     2     5     1
 -0.0029257345     2     2     5     3
 0.5291889485     2     2     5     5
 0.0000000001     2     2     5    10
 -0.1298172307     2     2     5    13
 0.5287513660     2     2     6     6
 0.0000000001     2     2     6     8
 0.0000000001     2     2     6     9
 0.2035461359     2     2     6    11
 0.0092472586     2     2     6    12
 0.5287513660     2     2     7     7
 0.0000000001     2     2     7     8
 -0.0000000001     2     2     7     9
 -0.0092472586     2     2     7    11
 0.2035461359     2     2     7    12
 0.0000000001     2     2     8     6
 0.0000000001     2     2     8     7
 0.5412054209     2     2     8     8
 0.0000000001     2     2     8    12
 0.0000000001     2     2     9     6
 -0.0000000001     2     2     9     7
 0.5412054209     2     2     9     9
 0.0000000001     2     2     9    11
 -0.0304807833     2     2    10     4
 0.0000000001     2     2    10     5
 0.5676055487     2     2    10    10
 -0.0000000001     2     2    10    13
 0.2035461359     2     2    11     6
 -0.0092472586     2     2    11     7
 0.0000000001     2     2    11     9
 0.5257532106     2     2    11    11
 0.0092472586     2     2    12     6
 0.2035461359     2     2    12     7
 0.0000000001     2     2    12     8
 0.5257532106     2     2    12    12
 0.0025435754     2     2    13     1
 0.1143405310     2     2    13     3
 0.0000000001     2     2    13     4
 -0.1298172307     2     2    13     5
 -0.0000000001     2     2    13    10
 0.5484482644     2     2    13    13
 -0.0000986730     2     3     1     2
 0.0000003547     2     3     1     4
 0.0000041798     2     3     1    10
 -0.5604235489     2     3     3     2
 0.0000758032     2     3     3     4
 0.0023006329     2     3     3    10
 -0.3527646303     2     3     4     1
 -0.0000000002     2     3     4     2
 -0.0027727334     2     3     4     5
 0.0020455151     2     3     4    13
 0.0029257345     2     3     5     2
 -0.0018453447     2     3     5     4
 -0.0195119885     2     3     5    10
 -0.0102402435     2     3     6     8
 -0.0157663115     2     3     6     9
 -0.0157663115     2     3     7     8
 0.0102402435     2     3     7     9
 -0.0098942912     2     3     8     6
 -0.0152336688     2     3     8     7
 -0.0115751278     2     3     8    11
 -0.0197272905     2     3     8    12
 -0.0152336688     2     3     9     6
 0.0098942912     2     3     9     7
 -0.0197272905     2     3     9    11
 0.0115751278     2     3     9    12
 0.0364136419     2     3    10     1
 -0.0178791503     2     3    10     5
 0.0179288750     2     3    10    13
 -0.0079979176     2     3    11     8
 -0.0136307130     2     3    11     9
 -0.0136307130     2     3    12     8
 0.0079979176     2     3    12     9
 -0.1143405310     2     3    13     2
 0.0012066774     2     3    13     4
 0.0129888079     2     3    13    10
 -0.0002411580     2     4     1     1
 -0.0000003547     2     4     1     3
 0.0000075419     2     4     1     5
 -0.0000069623     2     4     1    13
 -0.3527649850     2     4     3     1
 -0.0000000002     2     4     3     2
 -0.0000758032     2     4     3     3
 -0.0009273887     2     4     3     5
 0.0008388377     2     4     3    13
 -0.5674365905     2     4     4     2
 -0.0002413183     2     4     4    10
 -0.0699940817     2     4     5     1
 0.0018453447     2     4     5     3
 -0.0169558723     2     4     5     5
 0.0174769524     2     4     5    13
 -0.0181123053     2     4     6     6
 -0.0226638588     2     4     6    11
 -0.0010296366     2     4     6    12
 -0.0181123053     2     4     7     7
 0.0010296366     2     4     7    11
 -0.0226638588     2     4     7    12
 -0.0197443400     2     4     8     8
 -0.0197443400     2     4     9     9
 0.0304807833     2     4    10     2
 -0.0214329502     2     4    10    10
 -0.0158397079     2     4    11     6
 0.0007196102     2     4    11     7
 -0.0207183976     2     4    11    11
 -0.0007196102     2     4    12     6
 -0.0158397079     2     4    12     7
 -0.0207183976     2     4    12    12
 -0.1108339832     2     4    13     1
 -0.0000000001     2     4    13     2
 -0.0012066774     2     4    13     3
 0.0119846753     2     4    13     5
 -0.0138416349     2     4    13    13
 0.0027659978     2     5     1     2
 -0.0000075419     2     5     1     4
 -0.0000775791     2     5     1    10
 0.0029257345     2     5     3     2
 0.0009273887     2     5     3     4
 -0.0016328382     2     5     3    10
 -0.0700016236     2     5     4     1
 0.0027727334     2     5     4     3
 0.0054922771     2     5     4    13
 -0.5291889485     2     5     5     2
 0.0169558723     2     5     5     4
 0.0002509539     2     5     5    10
 -0.0000496717     2     5     6     8
 -0.0000764766     2     5     6     9
 -0.0000764766     2     5     7     8
 0.0000496717     2     5     7     9
 -0.0002865469     2     5     8     6
 -0.0004411796     2     5     8     7
 -0.0009596084     2     5     8    11
 -0.0016354440     2     5     8    12
 -0.0004411796     2     5     9     6
 0.0002865469     2     5     9     7
 -0.0016354440     2     5     9    11
 0.0009596084     2     5     9    12
 -0.3201270053     2     5    10     1
 -0.0000000001     2     5    10     2
 0.0178791503     2     5    10     3
 0.0096203193     2     5    10    13
 -0.0008510903     2     5    11     8
 -0.0014504985     2     5    11     9
 -0.0014504985     2     5    12     8
 0.0008510903     2     5    12     9
 0.1298172307     2     5    13     2
 -0.0119846753     2     5    13     4
 0.0037842168     2     5    13    10
 -0.0000208899     2     6     1     8
 -0.0000321630     2     6     1     9
 -0.0003459523     2     6     3     8
 -0.0005326427     2     6     3     9
 -0.0068241509     2     6     4    11
 -0.0003100264     2     6     4    12
 0.0002368752     2     6     5     8
 0.0003647030     2     6     5     9
 -0.5287513660     2     6     6     2
 0.0181123053     2     6     6     4
 -0.0007667181     2     6     6    10
 -0.1796124044     2     6     8     1
 -0.0000000001     2     6     8     2
 0.0098942912     2     6     8     3
 0.0002865469     2     6     8     5
 0.0050709778     2     6     8    13
 -0.2765388485     2     6     9     1
 -0.0000000001     2     6     9     2
 0.0152336688     2     6     9     3
 0.0004411796     2     6     9     5
 0.0078074918     2     6     9    13
 0.0009675553     2     6    10    11
 0.0000439568     2     6    10    12
 -0.2035461359     2     6    11     2
 0.0158397079     2     6    11     4
 -0.0024226461     2     6    11    10
 -0.0092472586     2     6    12     2
 0.0007196102     2     6    12     4
 -0.0001100627     2     6    12    10
 0.0001912685     2     6    13     8
 0.0002944851     2     6    13     9
 -0.0000321630     2     7     1     8
 0.0000208899     2     7     1     9
 -0.0005326427     2     7     3     8
 0.0003459523     2     7     3     9
 0.0003100264     2     7     4    11
 -0.0068241509     2     7     4    12
 0.0003647030     2     7     5     8
 -0.0002368752     2     7     5     9
 -0.5287513660     2     7     7     2
 0.0181123053     2     7     7     4
 -0.0007667181     2     7     7    10
 -0.2765388485     2     7     8     1
 -0.0000000001     2     7     8     2
 0.0152336688     2     7     8     3
 0.0004411796     2     7     8     5
 0.0078074918     2     7     8    13
 0.1796124044     2     7     9     1
 0.0000000001     2     7     9     2
 -0.0098942912     2     7     9     3
 -0.0002865469     2     7     9     5
 -0.0050709778     2     7     9    13
 -0.0000439568     2     7    10    11
 0.0009675553     2     7    10    12
 0.0092472586     2     7    11     2
 -0.0007196102     2     7    11     4
 0.0001100627     2     7    11    10
 -0.2035461359     2     7    12     2
 0.0158397079     2     7    12     4
 -0.0024226461     2     7    12    10
 0.0002944851     2     7    13     8
 -0.0001912685     2     7    13     9
 0.0000208899     2     8     1     6
 0.0000321630     2     8     1     7
 0.0000220925     2     8     1    11
 0.0000376519     2     8     1    12
 0.0003459523     2     8     3     6
 0.0005326427     2     8     3     7
 -0.0035772102     2     8     3    11
 -0.0060965775     2     8     3    12
 -0.0002368752     2     8     5     6
 -0.0003647030     2     8     5     7
 -0.0001085181     2     8     5    11
 -0.0001849455     2     8     5    12
 -0.1795915145     2     8     6     1
 -0.0000000001     2     8     6     2
 0.0102402435     2     8     6     3
 0.0000496717     2     8     6     5
 0.0048797093     2     8     6    13
 -0.2765066855     2     8     7     1
 -0.0000000001     2     8     7     2
 0.0157663115     2     8     7     3
 0.0000764766     2     8     7     5
 0.0075130067     2     8     7    13
 -0.5412054209     2     8     8     2
 0.0197443400     2     8     8     4
 -0.0014773744     2     8     8    10
 -0.1072829560     2     8    11     1
 0.0079979176     2     8    11     3
 0.0008510903     2     8    11     5
 0.0060933960     2     8    11    13
 -0.1828404901     2     8    12     1
 -0.0000000001     2     8    12     2
 0.0136307130     2     8    12     3
 0.0014504985     2     8    12     5
 0.0103848696     2     8    12    13
 -0.0001912685     2     8    13     6
 -0.0002944851     2     8    13     7
 0.0005218731     2     8    13    11
 0.0008894194     2     8    13    12
 0.0000321630     2     9     1     6
 -0.0000208899     2     9     1     7
 0.0000376519     2     9     1    11
 -0.0000220925     2     9     1    12
 0.0005326427     2     9     3     6
 -0.0003459523     2     9     3     7
 -0.0060965775     2     9     3    11
 0.0035772102     2     9     3    12
 -0.0003647030     2     9     5     6
 0.0002368752     2     9     5     7
 -0.0001849455     2     9     5    11
 0.0001085181     2     9     5    12
 -0.2765066855     2     9     6     1
 -0.0000000001     2     9     6     2
 0.0157663115     2     9     6     3
 0.0000764766     2     9     6     5
 0.0075130067     2     9     6    13
 0.1795915145     2     9     7     1
 0.0000000001     2     9     7     2
 -0.0102402435     2     9     7     3
 -0.0000496717     2     9     7     5
 -0.0048797093     2     9     7    13
 -0.5412054209     2     9     9     2
 0.0197443400     2     9     9     4
 -0.0014773744     2     9     9    10
 -0.1828404901     2     9    11     1
 -0.0000000001     2     9    11     2
 0.0136307130     2     9    11     3
 0.0014504985     2     9    11     5
 0.0103848696     2     9    11    13
 0.1072829560     2     9    12     1
 -0.0079979176     2     9    12     3
 -0.0008510903     2     9    12     5
 -0.0060933960     2     9    12    13
 -0.0002944851     2     9    13     6
 0.0001912685     2     9    13     7
 0.0008894194     2     9    13    11