&FCI NORB=  6,NELEC=  6,MS2=0,
 ORBSYM=1,1,1,1,1,1
 ISYM=1,
&END
 0.3954604430     1     1     2     2
 0.3954604430     1     1     3     3
 0.3809683420     1     1     4     4
 0.3809683420     1     1     5     5
 0.2105553104     1     1     6     6
 -0.3954604430     1     2     2     1
 0.0000000001     1     2     2     6
 -0.0435529486     1     2     4     6
 -0.1822494608     1     2     5     6
 0.0002898355     1     2     6     4
 0.0012128310     1     2     6     5
 -0.3954604430     1     3     3     1
 -0.0000000001     1     3     3     6
 0.1822494608     1     3     4     6
 -0.0435529486     1     3     5     6
 -0.0012128310     1     3     6     4
 0.0002898355     1     3     6     5
 -0.0418262449     1     4     2     6
 0.1750239842     1     4     3     6
 -0.3809683420     1     4     4     1
 -0.0000000001     1     4     5     6
 -0.0002898355     1     4     6     2
 0.0012128310     1     4     6     3
 -0.1750239842     1     5     2     6
 -0.0418262449     1     5     3     6
 -0.0000000001     1     5     4     6
 -0.3809683420     1     5     5     1
 -0.0012128310     1     5     6     2
 -0.0002898355     1     5     6     3
 -0.0000000001     1     6     2     2
 0.0418262449     1     6     2     4
 0.1750239842     1     6     2     5
 0.0000000001     1     6     3     3
 -0.1750239842     1     6     3     4
 0.0418262449     1     6     3     5
 0.0435529486     1     6     4     2
 -0.1822494608     1     6     4     3
 0.0000000001     1     6     4     5
 0.1822494608     1     6     5     2
 0.0435529486     1     6     5     3
 0.0000000001     1     6     5     4
 -0.2105553104     1     6     6     1
 -0.3954604430     2     1     1     2
 0.0002898355     2     1     4     6
 0.0012128310     2     1     5     6
 0.0000000001     2     1     6     2
 -0.0435529486     2     1     6     4
 -0.1822494608     2     1     6     5
 0.3954604430     2     2     1     1
 -0.0000000001     2     2     1     6
 0.3969337915     2     2     3     3
 0.0000000001     2     2     3     4
 0.0000000001     2     2     4     3
 0.3699436553     2     2     4     4
 -0.0432371896     2     2     4     5
 -0.0432371896     2     2     5     4
 0.1993480831     2     2     5     5
 -0.0000000001     2     2     6     1
 0.3912642577     2     2     6     6
 -0.3969337915     2     3     3     2
 -0.0000000001     2     3     3     5
 -0.0000000001     2     3     4     2
 0.0432371896     2     3     4     4
 0.1817719424     2     3     4     5
 -0.0111763702     2     3     5     4
 -0.0432371896     2     3     5     5
 0.0418262449     2     4     1     6
 -0.0000000001     2     4     3     2
 0.1845125440     2     4     3     5
 -0.3699436553     2     4     4     2
 -0.0432371896     2     4     4     3
 0.0432371896     2     4     5     2
 0.0111763702     2     4     5     3
 -0.0000000001     2     4     5     5
 0.0435529486     2     4     6     1
 0.1750239842     2     5     1     6
 0.0000000001     2     5     3     3
 -0.1845125440     2     5     3     4
 0.0432371896     2     5     4     2
 -0.1817719424     2     5     4     3
 -0.1993480831     2     5     5     2
 0.0432371896     2     5     5     3
 0.0000000001     2     5     5     4
 0.1822494608     2     5     6     1
 0.0000000001     2     6     1     2
 -0.0418262449     2     6     1     4
 -0.1750239842     2     6     1     5
 -0.0002898355     2     6     4     1
 -0.0012128310     2     6     5     1
 -0.3912642577     2     6     6     2
 -0.3954604430     3     1     1     3
 -0.0012128310     3     1     4     6
 0.0002898355     3     1     5     6
 -0.0000000001     3     1     6     3
 0.1822494608     3     1     6     4
 -0.0435529486     3     1     6     5
 -0.3969337914     3     2     2     3
 -0.0000000001     3     2     2     4
 0.0432371896     3     2     4     4
 -0.0111763702     3     2     4     5
 -0.0000000001     3     2     5     3
 0.1817719424     3     2     5     4
 -0.0432371896     3     2     5     5
 0.3954604430     3     3     1     1
 0.0000000001     3     3     1     6
 0.3969337914     3     3     2     2
 0.0000000001     3     3     2     5
 0.1993480831     3     3     4     4
 0.0432371896     3     3     4     5
 0.0000000001     3     3     5     2
 0.0432371896     3     3     5     4
 0.3699436553     3     3     5     5
 0.0000000001     3     3     6     1
 0.3912642577     3     3     6     6
 -0.1750239842     3     4     1     6
 0.0000000001     3     4     2     2
 -0.1845125440     3     4     2     5
 -0.0432371896     3     4     4     2
 -0.1993480831     3     4     4     3
 -0.0000000001     3     4     4     5
 -0.1817719424     3     4     5     2
 -0.0432371896     3     4     5     3
 -0.1822494608     3     4     6     1
 0.0418262449     3     5     1     6
 -0.0000000001     3     5     2     3
 0.1845125440     3     5     2     4
 0.0111763702     3     5     4     2
 -0.0432371896     3     5     4     3
 0.0000000001     3     5     4     4
 0.0432371896     3     5     5     2
 -0.3699436553     3     5     5     3
 0.0435529486     3     5     6     1
 -0.0000000001     3     6     1     3
 0.1750239842     3     6     1     4
 -0.0418262449     3     6     1     5
 0.0012128310     3     6     4     1
 -0.0002898355     3     6     5     1
 -0.3912642577     3     6     6     3
 -0.3809683420     4     1     1     4
 -0.0002898355     4     1     2     6
 0.0012128310     4     1     3     6
 -0.0418262449     4     1     6     2
 0.1750239842     4     1     6     3
 -0.0000000001     4     1     6     5
 0.0435529486     4     2     1     6
 -0.0000000001     4     2     2     3
 -0.3699436553     4     2     2     4
 0.0432371896     4     2     2     5
 -0.0432371896     4     2     3     4
 0.0111763702     4     2     3     5
 0.1845125440     4     2     5     3
 -0.0000000001     4     2     5     5
 0.0418262449     4     2     6     1
 -0.1822494608     4     3     1     6
 0.0000000001     4     3     2     2
 -0.0432371896     4     3     2     4
 -0.1817719424     4     3     2     5
 -0.1993480831     4     3     3     4
 -0.0432371896     4     3     3     5
 -0.1845125440     4     3     5     2
 -0.0000000001     4     3     5     4
 -0.1750239842     4     3     6     1
 0.3809683420     4     4     1     1
 0.3699436553     4     4     2     2
 0.0432371896     4     4     2     3
 0.0432371896     4     4     3     2
 0.1993480831     4     4     3     3
 0.0000000001     4     4     3     5
 0.0000000001     4     4     5     3
 0.3703863436     4     4     5     5
 0.3793699372     4     4     6     6
 0.0000000001     4     5     1     6
 -0.0432371896     4     5     2     2
 0.1817719424     4     5     2     3
 -0.0111763702     4     5     3     2
 0.0432371896     4     5     3     3
 -0.0000000001     4     5     3     4
 0.0000000001     4     5     5     2
 -0.3703863436     4     5     5     4
 0.0000000001     4     5     6     1
 -0.0435529486     4     6     1     2
 0.1822494608     4     6     1     3
 -0.0000000001     4     6     1     5
 0.0002898355     4     6     2     1
 -0.0012128310     4     6     3     1
 -0.3793699372     4     6     6     4
 -0.3809683420     5     1     1     5
 -0.0012128310     5     1     2     6
 -0.0002898355     5     1     3     6
 -0.1750239842     5     1     6     2
 -0.0418262449     5     1     6     3
 -0.0000000001     5     1     6     4
 0.1822494608     5     2     1     6
 0.0432371896     5     2     2     4
 -0.1993480831     5     2     2     5
 0.0000000001     5     2     3     3
 -0.1817719424     5     2     3     4
 0.0432371896     5     2     3     5
 -0.1845125440     5     2     4     3
 0.0000000001     5     2     4     5
 0.1750239842     5     2     6     1
 0.0435529486     5     3     1     6
 0.0111763702     5     3     2     4
 0.0432371896     5     3     2     5
 -0.0000000001     5     3     3     2
 -0.0432371896     5     3     3     4
 -0.3699436553     5     3     3     5
 0.1845125440     5     3     4     2
 0.0000000001     5     3     4     4
 0.0418262449     5     3     6     1
 0.0000000001     5     4     1     6
 -0.0432371896     5     4     2     2
 -0.0111763702     5     4     2     3
 0.0000000001     5     4     2     5
 0.1817719424     5     4     3     2
 0.0432371896     5     4     3     3
 -0.0000000001     5     4     4     3
 -0.3703863436     5     4     4     5
 0.0000000001     5     4     6     1
 0.3809683420     5     5     1     1
 0.1993480831     5     5     2     2
 -0.0432371896     5     5     2     3
 -0.0000000001     5     5     2     4
 -0.0432371896     5     5     3     2
 0.3699436553     5     5     3     3
 -0.0000000001     5     5     4     2
 0.3703863436     5     5     4     4
 0.3793699372     5     5     6     6
 -0.1822494608     5     6     1     2
 -0.0435529486     5     6     1     3
 -0.0000000001     5     6     1     4
 0.0012128310     5     6     2     1
 0.0002898355     5     6     3     1
 -0.3793699372     5     6     6     5
 -0.2105553104     6     1     1     6
 -0.0000000001     6     1     2     2
 0.0435529486     6     1     2     4
 0.1822494608     6     1     2     5
 0.0000000001     6     1     3     3
 -0.1822494608     6     1     3     4
 0.0435529486     6     1     3     5
 0.0418262449     6     1     4     2
 -0.1750239842     6     1     4     3
 0.0000000001     6     1     4     5
 0.1750239842     6     1     5     2
 0.0418262449     6     1     5     3
 0.0000000001     6     1     5     4
 -0.0002898355     6     2     1     4
 -0.0012128310     6     2     1     5
 0.0000000001     6     2     2     1
 -0.3912642577     6     2     2     6
 -0.0418262449     6     2     4     1
 -0.1750239842     6     2     5     1
 0.0012128310     6     3     1     4
 -0.0002898355     6     3     1     5
 -0.0000000001     6     3     3     1
 -0.3912642577     6     3     3     6
 0.1750239842     6     3     4     1
 -0.0418262449     6     3     5     1
 0.0002898355     6     4     1     2
 -0.0012128310     6     4     1     3
 -0.0435529486     6     4     2     1
 0.1822494608     6     4     3     1
 -0.3793699372     6     4     4     6
 -0.0000000001     6     4     5     1
 0.0012128310     6     5     1     2
 0.0002898355     6     5     1     3
 -0.1822494608     6     5     2     1
 -0.0435529486     6     5     3     1
 -0.0000000001     6     5     4     1
 -0.3793699372     6     5     5     6
 0.2105553104     6     6     1     1
 0.3912642577     6     6     2     2
 0.3912642577     6     6     3     3
 0.3793699372     6     6     4     4
 0.3793699372     6     6     5     5
0.0 0 0 0 0
 0.3954604430     1     1     2     2
 0.3954604430     1     1     3     3
 0.3809683420     1     1     4     4
 0.3809683420     1     1     5     5
 0.2105553104     1     1     6     6
 -0.3954604430     1     2     2     1
 0.0000000001     1     2     2     6
 -0.0435529486     1     2     4     6
 -0.1822494608     1     2     5     6
 0.0002898355     1     2     6     4
 0.0012128310     1     2     6     5
 -0.3954604430     1     3     3     1
 -0.0000000001     1     3     3     6
 0.1822494608     1     3     4     6
 -0.0435529486     1     3     5     6
 -0.0012128310     1     3     6     4
 0.0002898355     1     3     6     5
 -0.0418262449     1     4     2     6
 0.1750239842     1     4     3     6
 -0.3809683420     1     4     4     1
 -0.0000000001     1     4     5     6
 -0.0002898355     1     4     6     2
 0.0012128310     1     4     6     3
 -0.1750239842     1     5     2     6
 -0.0418262449     1     5     3     6
 -0.0000000001     1     5     4     6
 -0.3809683420     1     5     5     1
 -0.0012128310     1     5     6     2
 -0.0002898355     1     5     6     3
 -0.0000000001     1     6     2     2
 0.0418262449     1     6     2     4
 0.1750239842     1     6     2     5
 0.0000000001     1     6     3     3
 -0.1750239842     1     6     3     4
 0.0418262449     1     6     3     5
 0.0435529486     1     6     4     2
 -0.1822494608     1     6     4     3
 0.0000000001     1     6     4     5
 0.1822494608     1     6     5     2
 0.0435529486     1     6     5     3
 0.0000000001     1     6     5     4
 -0.2105553104     1     6     6     1
 -0.3954604430     2     1     1     2
 0.0002898355     2     1     4     6
 0.0012128310     2     1     5     6
 0.0000000001     2     1     6     2
 -0.0435529486     2     1     6     4
 -0.1822494608     2     1     6     5
 0.3954604430     2     2     1     1
 -0.0000000001     2     2     1     6
 0.3969337915     2     2     3     3
 0.0000000001     2     2     3     4
 0.0000000001     2     2     4     3
 0.3699436553     2     2     4     4
 -0.0432371896     2     2     4     5
 -0.0432371896     2     2     5     4
 0.1993480831     2     2     5     5
 -0.0000000001     2     2     6     1
 0.3912642577     2     2     6     6
 -0.3969337915     2     3     3     2
 -0.0000000001     2     3     3     5
 -0.0000000001     2     3     4     2
 0.0432371896     2     3     4     4
 0.1817719424     2     3     4     5
 -0.0111763702     2     3     5     4
 -0.0432371896     2     3     5     5
 0.0418262449     2     4     1     6
 -0.0000000001     2     4     3     2
 0.1845125440     2     4     3     5
 -0.3699436553     2     4     4     2
 -0.0432371896     2     4     4     3
 0.0432371896     2     4     5     2
 0.0111763702     2     4     5     3
 -0.0000000001     2     4     5     5
 0.0435529486     2     4     6     1
 0.1750239842     2     5     1     6
 0.0000000001     2     5     3     3
 -0.1845125440     2     5     3     4
 0.0432371896     2     5     4     2
 -0.1817719424     2     5     4     3
 -0.1993480831     2     5     5     2
 0.0432371896     2     5     5     3
 0.0000000001     2     5     5     4
 0.1822494608     2     5     6     1
 0.0000000001     2     6     1     2
 -0.0418262449     2     6     1     4
 -0.1750239842     2     6     1     5
 -0.0002898355     2     6     4     1
 -0.0012128310     2     6     5     1
 -0.3912642577     2     6     6     2
 -0.3954604430     3     1     1     3
 -0.0012128310     3     1     4     6
 0.0002898355     3     1     5     6
 -0.0000000001     3     1     6     3
 0.1822494608     3     1     6     4
 -0.0435529486     3     1     6     5
 -0.3969337914     3     2     2     3
 -0.0000000001     3     2     2     4
 0.0432371896     3     2     4     4
 -0.0111763702     3     2     4     5
 -0.0000000001     3     2     5     3
 0.1817719424     3     2     5     4
 -0.0432371896     3     2     5     5
 0.3954604430     3     3     1     1
 0.0000000001     3     3     1     6
 0.3969337914     3     3     2     2
 0.0000000001     3     3     2     5
 0.1993480831     3     3     4     4
 0.0432371896     3     3     4     5
 0.0000000001     3     3     5     2
 0.0432371896     3     3     5     4
 0.3699436553     3     3     5     5
 0.0000000001     3     3     6     1
 0.3912642577     3     3     6     6
 -0.1750239842     3     4     1     6
 0.0000000001     3     4     2     2
 -0.1845125440     3     4     2     5
 -0.0432371896     3     4     4     2
 -0.1993480831     3     4     4     3
 -0.0000000001     3     4     4     5
 -0.1817719424     3     4     5     2
 -0.0432371896     3     4     5     3
 -0.1822494608     3     4     6     1
 0.0418262449     3     5     1     6
 -0.0000000001     3     5     2     3
 0.1845125440     3     5     2     4
 0.0111763702     3     5     4     2
 -0.0432371896     3     5     4     3
 0.0000000001     3     5     4     4
 0.0432371896     3     5     5     2
 -0.3699436553     3     5     5     3
 0.0435529486     3     5     6     1
 -0.0000000001     3     6     1     3
 0.1750239842     3     6     1     4
 -0.0418262449     3     6     1     5
 0.0012128310     3     6     4     1
 -0.0002898355     3     6     5     1
 -0.3912642577     3     6     6     3
 -0.3809683420     4     1     1     4
 -0.0002898355     4     1     2     6
 0.0012128310     4     1     3     6
 -0.0418262449     4     1     6     2
 0.1750239842     4     1     6     3
 -0.0000000001     4     1     6     5
 0.0435529486     4     2     1     6
 -0.0000000001     4     2     2     3
 -0.3699436553     4     2     2     4
 0.0432371896     4     2     2     5
 -0.0432371896     4     2     3     4
 0.0111763702     4     2     3     5
 0.1845125440     4     2     5     3
 -0.0000000001     4     2     5     5
 0.0418262449     4     2     6     1
 -0.1822494608     4     3     1     6
 0.0000000001     4     3     2     2
 -0.0432371896     4     3     2     4
 -0.1817719424     4     3     2     5
 -0.1993480831     4     3     3     4
 -0.0432371896     4     3     3     5
 -0.1845125440     4     3     5     2
 -0.0000000001     4     3     5     4
 -0.1750239842     4     3     6     1
 0.3809683420     4     4     1     1
 0.3699436553     4     4     2     2
 0.0432371896     4     4     2     3
 0.0432371896     4     4     3     2
 0.1993480831     4     4     3     3
 0.0000000001     4     4     3     5
 0.0000000001     4     4     5     3
 0.3703863436     4     4     5     5
 0.3793699372     4     4     6     6
 0.0000000001     4     5     1     6
 -0.0432371896     4     5     2     2
 0.1817719424     4     5     2     3
 -0.0111763702     4     5     3     2
 0.0432371896     4     5     3     3
 -0.0000000001     4     5     3     4
 0.0000000001     4     5     5     2
 -0.3703863436     4     5     5     4
 0.0000000001     4     5     6     1
 -0.0435529486     4     6     1     2
 0.1822494608     4     6     1     3
 -0.0000000001     4     6     1     5
 0.0002898355     4     6     2     1
 -0.0012128310     4     6     3     1
 -0.3793699372     4     6     6     4
 -0.3809683420     5     1     1     5
 -0.0012128310     5     1     2     6
 -0.0002898355     5     1     3     6
 -0.1750239842     5     1     6     2
 -0.0418262449     5     1     6     3
 -0.0000000001     5     1     6     4
 0.1822494608     5     2     1     6
 0.0432371896     5     2     2     4
 -0.1993480831     5     2     2     5
 0.0000000001     5     2     3     3
 -0.1817719424     5     2     3     4
 0.0432371896     5     2     3     5
 -0.1845125440     5     2     4     3
 0.0000000001     5     2     4     5
 0.1750239842     5     2     6     1
 0.0435529486     5     3     1     6
 0.0111763702     5     3     2     4
 0.0432371896     5     3     2     5
 -0.0000000001     5     3     3     2
 -0.0432371896     5     3     3     4
 -0.3699436553     5     3     3     5
 0.1845125440     5     3     4     2
 0.0000000001     5     3     4     4
 0.0418262449     5     3     6     1
 0.0000000001     5     4     1     6
 -0.0432371896     5     4     2     2
 -0.0111763702     5     4     2     3
 0.0000000001     5     4     2     5
 0.1817719424     5     4     3     2
 0.0432371896     5     4     3     3
 -0.0000000001     5     4     4     3
 -0.3703863436     5     4     4     5
 0.0000000001     5     4     6     1
 0.3809683420     5     5     1     1
 0.1993480831     5     5     2     2
 -0.0432371896     5     5     2     3
 -0.0000000001     5     5     2     4
 -0.0432371896     5     5     3     2
 0.3699436553     5     5     3     3
 -0.0000000001     5     5     4     2
 0.3703863436     5     5     4     4
 0.3793699372     5     5     6     6
 -0.1822494608     5     6     1     2
 -0.0435529486     5     6     1     3
 -0.0000000001     5     6     1     4
 0.0012128310     5     6     2     1
 0.0002898355     5     6     3     1
 -0.3793699372     5     6     6     5
 -0.2105553104     6     1     1     6
 -0.0000000001     6     1     2     2
 0.0435529486     6     1     2     4
 0.1822494608     6     1     2     5
 0.0000000001     6     1     3     3
 -0.1822494608     6     1     3     4
 0.0435529486     6     1     3     5
 0.0418262449     6     1     4     2
 -0.1750239842     6     1     4     3
 0.0000000001     6     1     4     5
 0.1750239842     6     1     5     2
 0.0418262449     6     1     5     3
 0.0000000001     6     1     5     4
 -0.0002898355     6     2     1     4
 -0.0012128310     6     2     1     5
 0.0000000001     6     2     2     1
 -0.3912642577     6     2     2     6
 -0.0418262449     6     2     4     1
 -0.1750239842     6     2     5     1
 0.0012128310     6     3     1     4
 -0.0002898355     6     3     1     5
 -0.0000000001     6     3     3     1
 -0.3912642577     6     3     3     6
 0.1750239842     6     3     4     1
 -0.0418262449     6     3     5     1
 0.0002898355     6     4     1     2
 -0.0012128310     6     4     1     3
 -0.0435529486     6     4     2     1
 0.1822494608     6     4     3     1
 -0.3793699372     6     4     4     6
 -0.0000000001     6     4     5     1
 0.0012128310     6     5     1     2
 0.0002898355     6     5     1     3
 -0.1822494608     6     5     2     1
 -0.0435529486     6     5     3     1
 -0.0000000001     6     5     4     1
 -0.3793699372     6     5     5     6
 0.2105553104     6     6     1     1
 0.3912642577     6     6     2     2
 0.3912642577     6     6     3     3
 0.3793699372     6     6     4     4
 0.3793699372     6     6     5     5
0.0 0 0 0 0
 0.4387462505     1     1     1     1
 0.4085066766     1     1     2     2
 0.4085066766     1     1     3     3
 0.4039506762     1     1     4     4
 0.4039506762     1     1     5     5
 0.4455629870     1     1     6     6
 0.0159597421     1     2     1     2
 0.0130462336     1     2     2     1
 0.0027407885     1     2     4     6
 0.0114689647     1     2     5     6
 0.0044674824     1     2     6     4
 0.0186944004     1     2     6     5
 0.0159597421     1     3     1     3
 0.0130462336     1     3     3     1
 -0.0114689647     1     3     4     6
 0.0027407885     1     3     5     6
 -0.0186944004     1     3     6     4
 0.0044674824     1     3     6     5
 0.0218275079     1     4     1     4
 0.0057353539     1     4     2     6
 -0.0239998713     1     4     3     6
 0.0229823342     1     4     4     1
 0.0041776469     1     4     6     2
 -0.0174815694     1     4     6     3
 0.0218275079     1     5     1     5
 0.0239998713     1     5     2     6
 0.0057353539     1     5     3     6
 0.0229823342     1     5     5     1
 0.0174815694     1     5     6     2
 0.0041776469     1     5     6     3
 0.2438075157     1     6     1     6
 -0.0000000001     1     6     2     2
 0.0475615988     1     6     2     4
 0.1990238555     1     6     2     5
 0.0000000001     1     6     3     3
 -0.1990238555     1     6     3     4
 0.0475615988     1     6     3     5
 0.0462937371     1     6     4     2
 -0.1937184255     1     6     4     3
 0.0000000001     1     6     4     5
 0.1937184255     1     6     5     2
 0.0462937371     1     6     5     3
 0.0000000001     1     6     5     4
 0.2350076766     1     6     6     1
 0.0130462336     2     1     1     2
 0.0159597421     2     1     2     1
 0.0044674824     2     1     4     6
 0.0186944004     2     1     5     6
 0.0027407885     2     1     6     4
 0.0114689647     2     1     6     5
 0.4085066766     2     2     1     1
 -0.0000000001     2     2     1     6
 0.4371312158     2     2     2     2
 -0.0000000001     2     2     2     5
 0.4088424764     2     2     3     3
 0.0000000001     2     2     3     4
 0.0000000001     2     2     4     3
 0.4065743159     2     2     4     4
 0.0069810218     2     2     4     5
 -0.0000000001     2     2     5     2
 0.0069810218     2     2     5     4
 0.4341184605     2     2     5     5
 -0.0000000001     2     2     6     1
 0.4158002359     2     2     6     6
 0.0163800546     2     3     2     3
 0.0119086849     2     3     3     2
 -0.0069810218     2     3     4     4
 -0.0098802449     2     3     4     5
 -0.0176638997     2     3     5     4
 0.0069810218     2     3     5     5
 0.0475615988     2     4     1     6
 0.0360174703     2     4     2     4
 0.0534203267     2     4     2     5
 -0.0534203267     2     4     3     4
 -0.0131306793     2     4     3     5
 0.0366306606     2     4     4     2
 -0.0502182114     2     4     4     3
 0.0502182114     2     4     5     2
 -0.0064875295     2     4     5     3
 0.0462937371     2     4     6     1
 0.1990238555     2     5     1     6
 -0.0000000001     2     5     2     2
 0.0534203267     2     5     2     4
 0.2467913729     2     5     2     5
 0.0000000001     2     5     3     3
 -0.1976432233     2     5     3     4
 0.0534203266     2     5     3     5
 0.0502182114     2     5     4     2
 -0.1916521873     2     5     4     3
 0.0000000001     2     5     4     5
 0.2347703774     2     5     5     2
 0.0502182114     2     5     5     3
 0.0000000001     2     5     5     4
 0.0000000001     2     5     5     5
 0.1937184255     2     5     6     1
 0.0057353539     2     6     1     4
 0.0239998713     2     6     1     5
 0.0225297481     2     6     2     6
 0.0041776469     2     6     4     1
 0.0174815694     2     6     5     1
 0.0245359782     2     6     6     2
 0.0130462336     3     1     1     3
 0.0159597421     3     1     3     1
 -0.0186944004     3     1     4     6
 0.0044674824     3     1     5     6
 -0.0114689647     3     1     6     4
 0.0027407885     3     1     6     5
 0.0119086849     3     2     2     3
 0.0163800546     3     2     3     2
 -0.0069810218     3     2     4     4
 -0.0176638997     3     2     4     5
 -0.0098802449     3     2     5     4
 0.0069810218     3     2     5     5
 0.4085066766     3     3     1     1
 0.0000000001     3     3     1     6
 0.4088424763     3     3     2     2
 0.0000000001     3     3     2     5
 0.4371312158     3     3     3     3
 -0.0000000001     3     3     3     4
 -0.0000000001     3     3     4     3
 0.4341184605     3     3     4     4
 -0.0069810218     3     3     4     5
 0.0000000001     3     3     5     2
 -0.0069810218     3     3     5     4
 0.4065743159     3     3     5     5
 0.0000000001     3     3     6     1
 0.4158002359     3     3     6     6
 -0.1990238555     3     4     1     6
 0.0000000001     3     4     2     2
 -0.0534203267     3     4     2     4
 -0.1976432233     3     4     2     5
 -0.0000000001     3     4     3     3
 0.2467913729     3     4     3     4
 -0.0534203266     3     4     3     5
 -0.0502182114     3     4     4     2
 0.2347703774     3     4     4     3
 0.0000000001     3     4     4     4
 -0.0000000001     3     4     4     5
 -0.1916521873     3     4     5     2
 -0.0502182114     3     4     5     3
 -0.0000000001     3     4     5     4
 -0.1937184255     3     4     6     1
 0.0475615988     3     5     1     6
 -0.0131306793     3     5     2     4
 0.0534203266     3     5     2     5
 -0.0534203266     3     5     3     4
 0.0360174703     3     5     3     5
 -0.0064875295     3     5     4     2
 -0.0502182114     3     5     4     3
 0.0502182114     3     5     5     2
 0.0366306606     3     5     5     3
 0.0462937371     3     5     6     1
 -0.0239998713     3     6     1     4
 0.0057353539     3     6     1     5
 0.0225297481     3     6     3     6
 -0.0174815694     3     6     4     1
 0.0041776469     3     6     5     1
 0.0245359782     3     6     6     3
 0.0229823342     4     1     1     4
 0.0041776469     4     1     2     6
 -0.0174815694     4     1     3     6
 0.0218275079     4     1     4     1
 0.0057353539     4     1     6     2
 -0.0239998713     4     1     6     3
 0.0462937371     4     2     1     6
 0.0366306606     4     2     2     4
 0.0502182114     4     2     2     5
 -0.0502182114     4     2     3     4
 -0.0064875295     4     2     3     5
 0.0360174703     4     2     4     2
 -0.0534203267     4     2     4     3
 0.0534203267     4     2     5     2
 -0.0131306793     4     2     5     3
 0.0475615988     4     2     6     1
 -0.1937184255     4     3     1     6
 0.0000000001     4     3     2     2
 -0.0502182114     4     3     2     4
 -0.1916521873     4     3     2     5
 -0.0000000001     4     3     3     3
 0.2347703774     4     3     3     4
 -0.0502182114     4     3     3     5
 -0.0534203267     4     3     4     2
 0.2467913729     4     3     4     3
 0.0000000001     4     3     4     4
 -0.0000000001     4     3     4     5
 -0.1976432233     4     3     5     2
 -0.0534203266     4     3     5     3
 -0.0000000001     4     3     5     4
 -0.1990238555     4     3     6     1
 0.4039506762     4     4     1     1
 0.4065743159     4     4     2     2
 -0.0069810218     4     4     2     3
 -0.0069810218     4     4     3     2
 0.4341184605     4     4     3     3
 0.0000000001     4     4     3     4
 0.0000000001     4     4     4     3
 0.4183113100     4     4     4     4
 0.3869873169     4     4     5     5
 0.3964489718     4     4     6     6
 0.0000000001     4     5     1     6
 0.0069810218     4     5     2     2
 -0.0098802449     4     5     2     3
 0.0000000001     4     5     2     5
 -0.0176638997     4     5     3     2
 -0.0069810218     4     5     3     3
 -0.0000000001     4     5     3     4
 -0.0000000001     4     5     4     3
 0.0147230198     4     5     4     5
 0.0000000001     4     5     5     2
 0.0166009733     4     5     5     4
 0.0000000001     4     5     6     1
 0.0027407885     4     6     1     2
 -0.0114689647     4     6     1     3
 0.0044674824     4     6     2     1
 -0.0186944004     4     6     3     1
 0.0147235617     4     6     4     6
 0.0170790346     4     6     6     4
 0.0229823342     5     1     1     5
 0.0174815694     5     1     2     6
 0.0041776469     5     1     3     6
 0.0218275079     5     1     5     1
 0.0239998713     5     1     6     2
 0.0057353539     5     1     6     3
 0.1937184255     5     2     1     6
 -0.0000000001     5     2     2     2