&FCI NORB= 13,NELEC= 14,MS2=0,
 ORBSYM=1,1,1,1,1,1,1,1,1,1,1,1,1
 ISYM=1,
&END
 0.6051273292     1     1     2     2
 -0.0139282108     1     1     2     6
 -0.0054797313     1     1     2    10
 0.9240272859     1     1     3     3
 0.1328840525     1     1     3     7
 -0.0954899338     1     1     3    11
 0.7527184899     1     1     4     4
 0.1294622295     1     1     4    12
 -0.1738745433     1     1     4    13
 0.7527184899     1     1     5     5
 -0.1738745433     1     1     5    12
 -0.1294622295     1     1     5    13
 -0.0139282108     1     1     6     2
 0.6544306392     1     1     6     6
 0.1345943689     1     1     6    10
 0.1328840525     1     1     7     3
 0.7046562515     1     1     7     7
 -0.1422007595     1     1     7    11
 0.5744474108     1     1     8     8
 0.5744474108     1     1     9     9
 -0.0054797313     1     1    10     2
 0.1345943689     1     1    10     6
 0.3743307520     1     1    10    10
 -0.0954899338     1     1    11     3
 -0.1422007595     1     1    11     7
 0.4567196132     1     1    11    11
 0.1294622295     1     1    12     4
 -0.1738745433     1     1    12     5
 0.5557819301     1     1    12    12
 -0.1738745433     1     1    13     4
 -0.1294622295     1     1    13     5
 0.5557819301     1     1    13    13
 -0.6051273292     1     2     2     1
 -0.0220527278     1     2     2     3
 -0.0276309640     1     2     2     7
 0.0157086161     1     2     2    11
 0.0990589441     1     2     3     6
 0.0507710096     1     2     3    10
 -0.0530012574     1     2     4     8
 -0.1417411616     1     2     4     9
 -0.1417411616     1     2     5     8
 0.0530012574     1     2     5     9
 0.0139282108     1     2     6     1
 0.1000858452     1     2     6     3
 -0.2239987710     1     2     6     7
 0.0185799376     1     2     6    11
 -0.2252774465     1     2     7     6
 -0.0411457579     1     2     7    10
 -0.0526841232     1     2     8     4
 -0.1408930502     1     2     8     5
 0.0390809765     1     2     8    12
 0.0605782431     1     2     8    13
 -0.1408930502     1     2     9     4
 0.0526841232     1     2     9     5
 -0.0605782431     1     2     9    12
 0.0390809765     1     2     9    13
 0.0054797313     1     2    10     1
 0.0509969277     1     2    10     3
 -0.0406734840     1     2    10     7
 0.0666409839     1     2    10    11
 0.0193236056     1     2    11     6
 0.0669135956     1     2    11    10
 0.0394749047     1     2    12     8
 -0.0611888594     1     2    12     9
 0.0611888594     1     2    13     8
 0.0394749047     1     2    13     9
 0.0220527278     1     3     2     2
 -0.0010018721     1     3     2     6
 -0.0003117447     1     3     2    10
 -0.9240272859     1     3     3     1
 -0.0299777648     1     3     3     7
 0.0166444584     1     3     3    11
 -0.0205226882     1     3     4     4
 -0.0122239283     1     3     4    12
 0.0164173747     1     3     4    13
 -0.0205226882     1     3     5     5
 0.0164173747     1     3     5    12
 0.0122239283     1     3     5    13
 -0.1000858452     1     3     6     2
 -0.0126598027     1     3     6     6
 -0.0035963205     1     3     6    10
 -0.1328840525     1     3     7     1
 -0.0268370042     1     3     7     7
 0.0096675975     1     3     7    11
 -0.0106948391     1     3     8     8
 -0.0106948391     1     3     9     9
 -0.0509969277     1     3    10     2
 -0.0029557495     1     3    10     6
 -0.0029092117     1     3    10    10
 0.0954899338     1     3    11     1
 0.0106090957     1     3    11     7
 -0.0053800502     1     3    11    11
 -0.0072501798     1     3    12     4
 0.0097373706     1     3    12     5
 -0.0115416657     1     3    12    12
 0.0097373706     1     3    13     4
 0.0072501798     1     3    13     5
 -0.0115416657     1     3    13    13
 -0.0003078214     1     4     2     8
 -0.0008232063     1     4     2     9
 -0.0048167629     1     4     3    12
 0.0064691644     1     4     3    13
 -0.7527184899     1     4     4     1
 0.0205226882     1     4     4     3
 -0.0187292619     1     4     4     7
 0.0085177170     1     4     4    11
 -0.0015227268     1     4     6     8
 -0.0040722254     1     4     6     9
 0.0035442480     1     4     7    12
 -0.0047601104     1     4     7    13
 0.0526841232     1     4     8     2
 -0.0040193505     1     4     8     6
 -0.0021109890     1     4     8    10
 0.1408930502     1     4     9     2
 -0.0107489416     1     4     9     6
 -0.0056454138     1     4     9    10
 -0.0004691318     1     4    10     8
 -0.0012545982     1     4    10     9
 -0.0028706972     1     4    11    12
 0.0038554964     1     4    11    13
 -0.1294622295     1     4    12     1
 0.0072501798     1     4    12     3
 -0.0039810691     1     4    12     7
 0.0004242076     1     4    12    11
 0.1738745433     1     4    13     1
 -0.0097373706     1     4    13     3
 0.0053467839     1     4    13     7
 -0.0005697330     1     4    13    11
 -0.0008232063     1     5     2     8
 0.0003078214     1     5     2     9
 0.0064691644     1     5     3    12
 0.0048167629     1     5     3    13
 -0.7527184899     1     5     5     1
 0.0205226882     1     5     5     3
 -0.0187292619     1     5     5     7
 0.0085177170     1     5     5    11
 -0.0040722254     1     5     6     8
 0.0015227268     1     5     6     9
 -0.0047601104     1     5     7    12
 -0.0035442480     1     5     7    13
 0.1408930502     1     5     8     2
 -0.0107489416     1     5     8     6
 -0.0056454138     1     5     8    10
 -0.0526841232     1     5     9     2
 0.0040193505     1     5     9     6
 0.0021109890     1     5     9    10
 -0.0012545982     1     5    10     8
 0.0004691318     1     5    10     9
 0.0038554964     1     5    11    12
 0.0028706972     1     5    11    13
 0.1738745433     1     5    12     1
 -0.0097373706     1     5    12     3
 0.0053467839     1     5    12     7
 -0.0005697330     1     5    12    11
 0.1294622295     1     5    13     1
 -0.0072501798     1     5    13     3
 0.0039810691     1     5    13     7
 -0.0004242076     1     5    13    11
 0.0139282108     1     6     2     1
 0.0010018721     1     6     2     3
 0.0012689689     1     6     2     7
 -0.0007590259     1     6     2    11
 -0.0990589441     1     6     3     2
 -0.0007137793     1     6     3    10
 0.0026746696     1     6     4     8
 0.0071528639     1     6     4     9
 0.0071528639     1     6     5     8
 -0.0026746696     1     6     5     9
 -0.6544306392     1     6     6     1
 0.0126598027     1     6     6     3
 0.0008448481     1     6     6     7
 -0.0059369724     1     6     6    11
 0.2252774465     1     6     7     2
 0.0001705173     1     6     7    10
 0.0040193505     1     6     8     4
 0.0107489416     1     6     8     5
 -0.0081423502     1     6     8    12
 -0.0126212115     1     6     8    13
 0.0107489416     1     6     9     4
 -0.0040193505     1     6     9     5
 0.0126212115     1     6     9    12
 -0.0081423502     1     6     9    13
 -0.1345943689     1     6    10     1
 0.0029557495     1     6    10     3
 -0.0006482195     1     6    10     7
 0.0017713685     1     6    10    11
 -0.0193236056     1     6    11     2
 0.0032953898     1     6    11    10
 -0.0039506432     1     6    12     8
 0.0061237728     1     6    12     9
 -0.0061237728     1     6    13     8
 -0.0039506432     1     6    13     9
 0.0276309640     1     7     2     2
 -0.0012689689     1     7     2     6
 -0.0004827516     1     7     2    10
 -0.1328840525     1     7     3     1
 0.0299777648     1     7     3     3
 -0.0009458862     1     7     3    11
 0.0187292619     1     7     4     4
 0.0076633238     1     7     4    12
 -0.0102922444     1     7     4    13
 0.0187292619     1     7     5     5
 -0.0102922444     1     7     5    12
 -0.0076633238     1     7     5    13
 0.2239987710     1     7     6     2
 -0.0008448481     1     7     6     6
 0.0008887377     1     7     6    10
 -0.7046562515     1     7     7     1
 0.0268370042     1     7     7     3
 -0.0082989226     1     7     7    11
 0.0070790901     1     7     8     8
 0.0070790901     1     7     9     9
 0.0406734840     1     7    10     2
 0.0006482195     1     7    10     6
 -0.0018713614     1     7    10    10
 0.1422007595     1     7    11     1
 -0.0106090957     1     7    11     3
 0.0021367486     1     7    11    11
 0.0039810691     1     7    12     4
 -0.0053467839     1     7    12     5
 0.0070903798     1     7    12    12
 -0.0053467839     1     7    13     4
 -0.0039810691     1     7    13     5
 0.0070903798     1     7    13    13
 0.0003078214     1     8     2     4
 0.0008232063     1     8     2     5
 -0.0004055518     1     8     2    12
 -0.0006286335     1     8     2    13
 0.0530012574     1     8     4     2
 -0.0026746696     1     8     4     6
 -0.0016117403     1     8     4    10
 0.1417411616     1     8     5     2
 -0.0071528639     1     8     5     6
 -0.0043102742     1     8     5    10
 0.0015227268     1     8     6     4
 0.0040722254     1     8     6     5
 -0.0039474938     1     8     6    12
 -0.0061188912     1     8     6    13
 -0.5744474108     1     8     8     1
 0.0106948391     1     8     8     3
 -0.0070790901     1     8     8     7
 0.0008097639     1     8     8    11
 0.0004691318     1     8    10     4
 0.0012545982     1     8    10     5
 -0.0011931303     1     8    10    12
 -0.0018494352     1     8    10    13
 -0.0394749047     1     8    12     2
 0.0039506432     1     8    12     6
 0.0025708328     1     8    12    10
 -0.0611888594     1     8    13     2
 0.0061237728     1     8    13     6
 0.0039849704     1     8    13    10
 0.0008232063     1     9     2     4
 -0.0003078214     1     9     2     5
 0.0006286335     1     9     2    12
 -0.0004055518     1     9     2    13
 0.1417411616     1     9     4     2
 -0.0071528639     1     9     4     6
 -0.0043102742     1     9     4    10
 -0.0530012574     1     9     5     2
 0.0026746696     1     9     5     6
 0.0016117403     1     9     5    10
 0.0040722254     1     9     6     4
 -0.0015227268     1     9     6     5
 0.0061188912     1     9     6    12
 -0.0039474938     1     9     6    13
 -0.5744474108     1     9     9     1
 0.0106948391     1     9     9     3
 -0.0070790901     1     9     9     7
 0.0008097639     1     9     9    11
 0.0012545982     1     9    10     4
 -0.0004691318     1     9    10     5
 0.0018494352     1     9    10    12
 -0.0011931303     1     9    10    13
 0.0611888594     1     9    12     2
 -0.0061237728     1     9    12     6
 -0.0039849704     1     9    12    10
 -0.0394749047     1     9    13     2
 0.0039506432     1     9    13     6
 0.0025708328     1     9    13    10
 0.0054797313     1    10     2     1
 0.0003117447     1    10     2     3
 0.0004827516     1    10     2     7
 -0.0002824475     1    10     2    11
 -0.0507710096     1    10     3     2
 0.0007137793     1    10     3     6
 0.0016117403     1    10     4     8
 0.0043102742     1    10     4     9
 0.0043102742     1    10     5     8
 -0.0016117403     1    10     5     9
 -0.1345943689     1    10     6     1
 0.0035963205     1    10     6     3
 -0.0008887377     1    10     6     7
 -0.0015617454     1    10     6    11
 0.0411457579     1    10     7     2
 -0.0001705173     1    10     7     6
 0.0021109890     1    10     8     4
 0.0056454138     1    10     8     5
 -0.0037745953     1    10     8    12
 -0.0058508863     1    10     8    13
 0.0056454138     1    10     9     4
 -0.0021109890     1    10     9     5
 0.0058508863     1    10     9    12
 -0.0037745953     1    10     9    13
 -0.3743307520     1    10    10     1
 0.0029092117     1    10    10     3
 0.0018713614     1    10    10     7
 -0.0005016966     1    10    10    11
 -0.0669135956     1    10    11     2
 -0.0032953898     1    10    11     6
 -0.0025708328     1    10    12     8
 0.0039849704     1    10    12     9
 -0.0039849704     1    10    13     8
 -0.0025708328     1    10    13     9
 -0.0157086161     1    11     2     2
 0.0007590259     1    11     2     6
 0.0002824475     1    11     2    10
 0.0954899338     1    11     3     1
 -0.0166444584     1    11     3     3
 0.0009458862     1    11     3     7
 -0.0085177170     1    11     4     4
 -0.0032693790     1    11     4    12
 0.0043909470     1    11     4    13
 -0.0085177170     1    11     5     5
 0.0043909470     1    11     5    12
 0.0032693790     1    11     5    13
 -0.0185799376     1    11     6     2
 0.0059369724     1    11     6     6
 0.0015617454     1    11     6    10
 0.1422007595     1    11     7     1
 -0.0096675975     1    11     7     3
 0.0082989226     1    11     7     7
 -0.0008097639     1    11     8     8
 -0.0008097639     1    11     9     9
 -0.0666409839     1    11    10     2
 -0.0017713685     1    11    10     6
 0.0005016966     1    11    10    10
 -0.4567196132     1    11    11     1
 0.0053800502     1    11    11     3
 -0.0021367486     1    11    11     7
 -0.0004242076     1    11    12     4
 0.0005697330     1    11    12     5
 -0.0010492189     1    11    12    12
 0.0005697330     1    11    13     4
 0.0004242076     1    11    13     5
 -0.0010492189     1    11    13    13
 0.0004055518     1    12     2     8
 -0.0006286335     1    12     2     9
 0.0048167629     1    12     3     4
 -0.0064691644     1    12     3     5
 -0.1294622295     1    12     4     1
 0.0122239283     1    12     4     3
 -0.0076633238     1    12     4     7
 0.0032693790     1    12     4    11
 0.1738745433     1    12     5     1
 -0.0164173747     1    12     5     3
 0.0102922444     1    12     5     7
 -0.0043909470     1    12     5    11
 0.0039474938     1    12     6     8
 -0.0061188912     1    12     6     9
 -0.0035442480     1    12     7     4
 0.0047601104     1    12     7     5
 -0.0390809765     1    12     8     2
 0.0081423502     1    12     8     6
 0.0037745953     1    12     8    10
 0.0605782431     1    12     9     2
 -0.0126212115     1    12     9     6
 -0.0058508863     1    12     9    10
 0.0011931303     1    12    10     8
 -0.0018494352     1    12    10     9
 0.0028706972     1    12    11     4
 -0.0038554964     1    12    11     5
 -0.5557819301     1    12    12     1
 0.0115416657     1    12    12     3
 -0.0070903798     1    12    12     7
 0.0010492189     1    12    12    11
 0.0006286335     1    13     2     8
 0.0004055518     1    13     2     9
 -0.0064691644     1    13     3     4
 -0.0048167629     1    13     3     5
 0.1738745433     1    13     4     1
 -0.0164173747     1    13     4     3
 0.0102922444     1    13     4     7
 -0.0043909470     1    13     4    11
 0.1294622295     1    13     5     1
 -0.0122239283     1    13     5     3
 0.0076633238     1    13     5     7
 -0.0032693790     1    13     5    11
 0.0061188912     1    13     6     8
 0.0039474938     1    13     6     9
 0.0047601104     1    13     7     4
 0.0035442480     1    13     7     5
 -0.0605782431     1    13     8     2
 0.0126212115     1    13     8     6
 0.0058508863     1    13     8    10
 -0.0390809765     1    13     9     2
 0.0081423502     1    13     9     6
 0.0037745953     1    13     9    10
 0.0018494352     1    13    10     8
 0.0011931303     1    13    10     9
 -0.0038554964     1    13    11     4
 -0.0028706972     1    13    11     5
 -0.5557819301     1    13    13     1
 0.0115416657     1    13    13     3
 -0.0070903798     1    13    13     7
 0.0010492189     1    13    13    11
 -0.6051273292     2     1     1     2
 0.0139282108     2     1     1     6
 0.0054797313     2     1     1    10
 -0.0220527278     2     1     3     2
 0.1000858452     2     1     3     6
 0.0509969277     2     1     3    10
 -0.0526841232     2     1     4     8
 -0.1408930502     2     1     4     9
 -0.1408930502     2     1     5     8
 0.0526841232     2     1     5     9
 0.0990589441     2     1     6     3
 -0.2252774465     2     1     6     7
 0.0193236056     2     1     6    11
 -0.0276309640     2     1     7     2
 -0.2239987710     2     1     7     6
 -0.0406734840     2     1     7    10
 -0.0530012574     2     1     8     4
 -0.1417411616     2     1     8     5
 0.0394749047     2     1     8    12
 0.0611888594     2     1     8    13
 -0.1417411616     2     1     9     4
 0.0530012574     2     1     9     5
 -0.0611888594     2     1     9    12
 0.0394749047     2     1     9    13
 0.0507710096     2     1    10     3
 -0.0411457579     2     1    10     7
 0.0669135956     2     1    10    11
 0.0157086161     2     1    11     2
 0.0185799376     2     1    11     6
 0.0666409839     2     1    11    10
 0.0390809765     2     1    12     8
 -0.0605782431     2     1    12     9
 0.0605782431     2     1    13     8
 0.0390809765     2     1    13     9
 0.6051273292     2     2     1     1
 0.0220527278     2     2     1     3
 0.0276309640     2     2     1     7
 -0.0157086161     2     2     1    11
 0.0220527278     2     2     3     1
 0.9244689667     2     2     3     3
 0.1343311049     2     2     3     7
 -0.0964119640     2     2     3    11
 0.7541007201     2     2     4     4
 0.1302160602     2     2     4    12
 -0.1748869775     2     2     4    13
 0.7541007201     2     2     5     5
 -0.1748869775     2     2     5    12
 -0.1302160602     2     2     5    13
 0.6540536961     2     2     6     6
 0.1343600164     2     2     6    10
 0.0276309640     2     2     7     1
 0.1343311049     2     2     7     3
 0.7072349346     2     2     7     7
 -0.1436213871     2     2     7    11
 0.5740581838     2     2     8     8
 0.5740581838     2     2     9     9
 0.1343600164     2     2    10     6
 0.3742866877     2     2    10    10
 -0.0157086161     2     2    11     1
 -0.0964119640     2     2    11     3
 -0.1436213871     2     2    11     7
 0.4575557692     2     2    11    11
 0.1302160602     2     2    12     4
 -0.1748869775     2     2    12     5
 0.5568717895     2     2    12    12
 -0.1748869775     2     2    13     4
 -0.1302160602     2     2    13     5
 0.5568717895     2     2    13    13
 -0.0220527278     2     3     1     2
 0.0010018721     2     3     1     6
 0.0003117447     2     3     1    10
 -0.9244689667     2     3     3     2
 0.0200630722     2     3     3     6
 0.0075399904     2     3     3    10
 0.0089060137     2     3     4     8
 0.0238173355     2     3     4     9
 0.0238173355     2     3     5     8
 -0.0089060137     2     3     5     9
 -0.0990589441     2     3     6     1
 0.0238053294     2     3     6     7
 -0.0051983450     2     3     6    11
 -0.1343311049     2     3     7     2
 0.0312089802     2     3     7     6
 0.0090956666     2     3     7    10
 0.0057409625     2     3     8     4
 0.0153530451     2     3     8     5
 -0.0069389928     2     3     8    12
 -0.0107559233     2     3     8    13
 0.0153530451     2     3     9     4
 -0.0057409625     2     3     9     5
 0.0107559233     2     3     9    12
 -0.0069389928     2     3     9    13
 -0.0507710096     2     3    10     1
 0.0047360987     2     3    10     7
 -0.0061658026     2     3    10    11
 0.0964119640     2     3    11     2
 -0.0097658590     2     3    11     6
 -0.0085407597     2     3    11    10
 -0.0072893377     2     3    12     8
 0.0112989825     2     3    12     9
 -0.0112989825     2     3    13     8
 -0.0072893377     2     3    13     9
 0.0003078214     2     4     1     8
 0.0008232063     2     4     1     9
 0.0026487457     2     4     3     8
 0.0070835356     2     4     3     9
 -0.7541007201     2     4     4     2
 0.0219835283     2     4     4     6
 0.0101162831     2     4     4    10
 -0.0027994062     2     4     6    12
 0.0037597489     2     4     6    13
 0.0005935736     2     4     7     8
 0.0015873927     2     4     7     9
 0.0530012574     2     4     8     1
 -0.0057409625     2     4     8     3
 0.0001006785     2     4     8     7
 0.0011933592     2     4     8    11
 0.1417411616     2     4     9     1
 -0.0153530451     2     4     9     3
 0.0002692443     2     4     9     7
 0.0031913984     2     4     9    11
 -0.0008019493     2     4    10    12
 0.0010770599     2     4    10    13
 0.0003770144     2     4    11     8
 0.0010082489     2     4    11     9
 -0.1302160602     2     4    12     2
 0.0072991210     2     4    12     6
 0.0042626725     2     4    12    10
 0.1748869775     2     4    13     2
 -0.0098031012     2     4    13     6
 -0.0057249920     2     4    13    10
 0.0008232063     2     5     1     8
 -0.0003078214     2     5     1     9
 0.0070835356     2     5     3     8
 -0.0026487457     2     5     3     9
 -0.7541007201     2     5     5     2
 0.0219835283     2     5     5     6
 0.0101162831     2     5     5    10
 0.0037597489     2     5     6    12
 0.0027994062     2     5     6    13
 0.0015873927     2     5     7     8
 -0.0005935736     2     5     7     9
 0.1417411616     2     5     8     1
 -0.0153530451     2     5     8     3
 0.0002692443     2     5     8     7
 0.0031913984     2     5     8    11
 -0.0530012574     2     5     9     1
 0.0057409625     2     5     9     3
 -0.0001006785     2     5     9     7
 -0.0011933592     2     5     9    11
 0.0010770599     2     5    10    12
 0.0008019493     2     5    10    13
 0.0010082489     2     5    11     8
 -0.0003770144     2     5    11     9
 0.1748869775     2     5    12     2
 -0.0098031012     2     5    12     6
 -0.0057249920     2     5    12    10
 0.1302160602     2     5    13     2
 -0.0072991210     2     5    13     6
 -0.0042626725     2     5    13    10
 -0.0139282108     2     6     1     1
 -0.0010018721     2     6     1     3
 -0.0012689689     2     6     1     7
 0.0007590259     2     6     1    11
 -0.1000858452     2     6     3     1
 -0.0200630722     2     6     3     3
 -0.0074430795     2     6     3     7
 0.0048595492     2     6     3    11
 -0.0219835283     2     6     4     4
 -0.0104537807     2     6     4    12
 0.0140399740     2     6     4    13
 -0.0219835283     2     6     5     5
 0.0140399740     2     6     5    12
 0.0104537807     2     6     5    13
 -0.6540536961     2     6     6     2
 -0.0004590852     2     6     6    10
 0.2239987710     2     6     7     1
 -0.0312089802     2     6     7     3
 -0.0231109005     2     6     7     7
 0.0175273709     2     6     7    11
 -0.0138742583     2     6     8     8
 -0.0138742583     2     6     9     9
 -0.1343600164     2     6    10     2
 0.0009376216     2     6    10    10
 -0.0185799376     2     6    11     1
 0.0097658590     2     6    11     3
 0.0067617542     2     6    11     7
 -0.0053653777     2     6    11    11
 -0.0072991210     2     6    12     4
 0.0098031012     2     6    12     5
 -0.0124359392     2     6    12    12
 0.0098031012     2     6    13     4
 0.0072991210     2     6    13     5
 -0.0124359392     2     6    13    13
 -0.0276309640     2     7     1     2
 0.0012689689     2     7     1     6
 0.0004827516     2     7     1    10
 -0.1343311049     2     7     3     2
 0.0074430795     2     7     3     6
 0.0038200868     2     7     3    10
 0.0006674939     2     7     4     8
 0.0017850778     2     7     4     9
 0.0017850778     2     7     5     8
 -0.0006674939     2     7     5     9
 0.2252774465     2     7     6     1
 -0.0238053294     2     7     6     3
 0.0105851661     2     7     6    11
 -0.7072349346     2     7     7     2
 0.0231109005     2     7     7     6
 0.0069744376     2     7     7    10
 -0.0001006785     2     7     8     4
 -0.0002692443     2     7     8     5
 0.0035081620     2     7     8    12
 0.0054378961     2     7     8    13
 -0.0002692443     2     7     9     4
 0.0001006785     2     7     9     5
 -0.0054378961     2     7     9    12
 0.0035081620     2     7     9    13
 0.0411457579     2     7    10     1
 -0.0047360987     2     7    10     3
 -0.0035354378     2     7    10    11
 0.1436213871     2     7    11     2
 -0.0067617542     2     7    11     6
 -0.0089231299     2     7    11    10
 0.0000840731     2     7    12     8
 -0.0001303192     2     7    12     9
 0.0001303192     2     7    13     8
 0.0000840731     2     7    13     9
 -0.0003078214     2     8     1     4
 -0.0008232063     2     8     1     5
 0.0004055518     2     8     1    12
 0.0006286335     2     8     1    13
 -0.0026487457     2     8     3     4
 -0.0070835356     2     8     3     5
 0.0003861847     2     8     3    12
 0.0005986133     2     8     3    13
 0.0526841232     2     8     4     1
 -0.0089060137     2     8     4     3
 -0.0006674939     2     8     4     7
 0.0008204426     2     8     4    11
 0.1408930502     2     8     5     1
 -0.0238173355     2     8     5     3
 -0.0017850778     2     8     5     7
 0.0021941083     2     8     5    11
 -0.0005935736     2     8     7     4
 -0.0015873927     2     8     7     5
 0.0033229840     2     8     7    12
 0.0051508573     2     8     7    13
 -0.5740581838     2     8     8     2
 0.0138742583     2     8     8     6
 0.0061853266     2     8     8    10
 -0.0003770144     2     8    11     4
 -0.0010082489     2     8    11     5
 -0.0014010779     2     8    11    12
 -0.0021717686     2     8    11    13
 -0.0390809765     2     8    12     1
 0.0072893377     2     8    12     3
 -0.0000840731     2     8    12     7
 -0.0012396658     2     8    12    11
 -0.0605782431     2     8    13     1
 0.0112989825     2     8    13     3
 -0.0001303192     2     8    13     7
 -0.0019215687     2     8    13    11
 -0.0008232063     2     9     1     4
 0.0003078214     2     9     1     5
 -0.0006286335     2     9     1    12
 0.0004055518     2     9     1    13
 -0.0070835356     2     9     3     4
 0.0026487457     2     9     3     5
 -0.0005986133     2     9     3    12
 0.0003861847     2     9     3    13
 0.1408930502     2     9     4     1
 -0.0238173355     2     9     4     3
 -0.0017850778     2     9     4     7
 0.0021941083     2     9     4    11
 -0.0526841232     2     9     5     1
 0.0089060137     2     9     5     3
 0.0006674939     2     9     5     7
 -0.0008204426     2     9     5    11
 -0.0015873927     2     9     7     4
 0.0005935736     2     9     7     5
 -0.0051508573     2     9     7    12
 0.0033229840     2     9     7    13
 -0.5740581838     2     9     9     2
 0.0138742583     2     9     9     6
 0.0061853266     2     9     9    10
 -0.0010082489     2     9    11     4
 0.0003770144     2     9    11     5
 0.0021717686     2     9    11    12
 -0.0014010779     2     9    11    13
 0.0605782431     2     9    12     1
 -0.0112989825     2     9    12     3
 0.0001303192     2     9    12     7
 0.0019215687     2     9    12    11
 -0.0390809765     2     9    13     1
 0.0072893377     2     9    13     3
 -0.0000840731     2     9    13     7
 -0.0012396658     2     9    13    11
 -0.0054797313     2    10     1     1
 -0.0003117447     2    10     1     3
 -0.0004827516     2    10     1     7
 0.0002824475     2    10     1    11
 -0.0509969277     2    10     3     1
 -0.0075399904     2    10     3     3
 -0.0038200868     2    10     3     7
 0.0024905996     2    10     3    11
 -0.0101162831     2    10     4     4
 -0.0051603310     2    10     4    12
 0.0069305944     2    10     4    13
 -0.0101162831     2    10     5     5
 0.0069305944     2    10     5    12
 0.0051603310     2    10     5    13
 -0.1343600164     2    10     6     2
 0.0004590852     2    10     6     6
 0.0406734840     2    10     7     1
 -0.0090956666     2    10     7     3
 -0.0069744376     2    10     7     7
 0.0056149655     2    10     7    11
 -0.0061853266     2    10     8     8
 -0.0061853266     2    10     9     9
 -0.3742866877     2    10    10     2
 -0.0009376216     2    10    10     6
 -0.0666409839     2    10    11     1
 0.0085407597     2    10    11     3
 0.0089231299     2    10    11     7
 -0.0054016964     2    10    11    11
 -0.0042626725     2    10    12     4
 0.0057249920     2    10    12     5
 -0.0068162519     2    10    12    12
 0.0057249920     2    10    13     4
 0.0042626725     2    10    13     5
 -0.0068162519     2    10    13    13
 0.0157086161     2    11     1     2
 -0.0007590259     2    11     1     6
 -0.0002824475     2    11     1    10
 0.0964119640     2    11     3     2
 -0.0048595492     2    11     3     6
 -0.0024905996     2    11     3    10
 -0.0008204426     2    11     4     8
 -0.0021941083     2    11     4     9
 -0.0021941083     2    11     5     8
 0.0008204426     2    11     5     9
 -0.0193236056     2    11     6     1
 0.0051983450     2    11     6     3
 -0.0105851661     2    11     6     7
 0.1436213871     2    11     7     2
 -0.0175273709     2    11     7     6
 -0.0056149655     2    11     7    10
 -0.0011933592     2    11     8     4
 -0.0031913984     2    11     8     5
 -0.0001524344     2    11     8    12
 -0.0002362841     2    11     8    13
 -0.0031913984     2    11     9     4
 0.0011933592     2    11     9     5
 0.0002362841     2    11     9    12
 -0.0001524344     2    11     9    13
 -0.0669135956     2    11    10     1
 0.0061658026     2    11    10     3
 0.0035354378     2    11    10     7
 -0.4575557692     2    11    11     2
 0.0053653777     2    11    11     6
 0.0054016964     2    11    11    10
 0.0012396658     2    11    12     8
 -0.0019215687     2    11    12     9
 0.0019215687     2    11    13     8
 0.0012396658     2    11    13     9
 -0.0004055518     2    12     1     8
 0.0006286335     2    12     1     9
 -0.0003861847     2    12     3     8
 0.0005986133     2    12     3     9
 -0.1302160602     2    12     4     2