&FCI NORB= 19,NELEC= 14,MS2=0,
 ORBSYM=1,1,1,1,1,1,1,1,1,1,1,1,1,1,1,1,1,1,1
 ISYM=1,
&END
 0.2302775867     1     1     2     2
 -0.0003752467     1     1     2     4
 -0.0000000001     1     1     2     5
 0.0035671419     1     1     2    10
 -0.0031345217     1     1     2    13
 0.0000000001     1     1     2    14
 -0.0020105492     1     1     2    18
 0.5696454061     1     1     3     3
 -0.0000000079     1     1     3     4
 -0.0053458486     1     1     3     5
 -0.0000000011     1     1     3    10
 -0.0000000019     1     1     3    13
 0.1617800355     1     1     3    14
 -0.0242395077     1     1     3    17
 0.0000000026     1     1     3    18
 0.0166653521     1     1     3    19
 -0.0003752467     1     1     4     2
 -0.0000000079     1     1     4     3
 0.5770983140     1     1     4     4
 -0.0000000021     1     1     4     5
 0.0367449738     1     1     4    10
 0.1184794146     1     1     4    13
 -0.0000000038     1     1     4    14
 0.0000000010     1     1     4    17
 -0.1084998372     1     1     4    18
 -0.0000000001     1     1     4    19
 -0.0000000001     1     1     5     2
 -0.0053458486     1     1     5     3
 -0.0000000021     1     1     5     4
 0.5445732066     1     1     5     5
 0.0000000072     1     1     5    10
 -0.0000000038     1     1     5    13
 -0.0150236087     1     1     5    14
 -0.1951954511     1     1     5    17
 -0.0000000015     1     1     5    18
 -0.0283563907     1     1     5    19
 0.5360536073     1     1     6     6
 0.0000000040     1     1     6     8
 -0.0000000064     1     1     6     9
 0.1793902172     1     1     6    11
 0.0962004834     1     1     6    12
 0.0000000021     1     1     6    15
 0.0000000037     1     1     6    16
 0.5360536073     1     1     7     7
 -0.0000000064     1     1     7     8
 -0.0000000040     1     1     7     9
 0.0962004834     1     1     7    11
 -0.1793902172     1     1     7    12
 0.0000000037     1     1     7    15
 -0.0000000021     1     1     7    16
 0.0000000040     1     1     8     6
 -0.0000000064     1     1     8     7
 0.5519477266     1     1     8     8
 0.0000000003     1     1     8    11
 0.0000000050     1     1     8    12
 -0.1000700028     1     1     8    15
 0.1826377069     1     1     8    16
 -0.0000000064     1     1     9     6
 -0.0000000040     1     1     9     7
 0.5519477266     1     1     9     9
 -0.0000000050     1     1     9    11
 0.0000000003     1     1     9    12
 -0.1826377069     1     1     9    15
 -0.1000700028     1     1     9    16
 0.0035671419     1     1    10     2
 -0.0000000011     1     1    10     3
 0.0367449738     1     1    10     4
 0.0000000072     1     1    10     5
 0.5843476537     1     1    10    10
 -0.1631053127     1     1    10    13
 -0.0000000027     1     1    10    14
 -0.0000000050     1     1    10    17
 -0.1204946049     1     1    10    18
 0.0000000006     1     1    10    19
 0.1793902172     1     1    11     6
 0.0962004834     1     1    11     7
 0.0000000003     1     1    11     8
 -0.0000000050     1     1    11     9
 0.5376123111     1     1    11    11
 0.0000000061     1     1    11    15
 0.0000000038     1     1    11    16
 0.0962004834     1     1    12     6
 -0.1793902172     1     1    12     7
 0.0000000050     1     1    12     8
 0.0000000003     1     1    12     9
 0.5376123111     1     1    12    12
 -0.0000000038     1     1    12    15
 0.0000000061     1     1    12    16
 -0.0031345217     1     1    13     2
 -0.0000000019     1     1    13     3
 0.1184794146     1     1    13     4
 -0.0000000038     1     1    13     5
 -0.1631053127     1     1    13    10
 0.4834615085     1     1    13    13
 -0.0000000024     1     1    13    14
 0.0000000066     1     1    13    17
 0.0192020803     1     1    13    18
 0.0000000005     1     1    13    19
 0.0000000001     1     1    14     2
 0.1617800355     1     1    14     3
 -0.0000000038     1     1    14     4
 -0.0150236087     1     1    14     5
 -0.0000000027     1     1    14    10
 -0.0000000024     1     1    14    13
 0.4978990055     1     1    14    14
 0.0573781241     1     1    14    17
 0.0000000046     1     1    14    18
 -0.0012573978     1     1    14    19
 0.0000000021     1     1    15     6
 0.0000000037     1     1    15     7
 -0.1000700028     1     1    15     8
 -0.1826377069     1     1    15     9
 0.0000000061     1     1    15    11
 -0.0000000038     1     1    15    12
 0.5199413140     1     1    15    15
 0.0000000037     1     1    16     6
 -0.0000000021     1     1    16     7
 0.1826377069     1     1    16     8
 -0.1000700028     1     1    16     9
 0.0000000038     1     1    16    11
 0.0000000061     1     1    16    12
 0.5199413140     1     1    16    16
 -0.0242395077     1     1    17     3
 0.0000000010     1     1    17     4
 -0.1951954511     1     1    17     5
 -0.0000000050     1     1    17    10
 0.0000000066     1     1    17    13
 0.0573781241     1     1    17    14
 0.5426623753     1     1    17    17
 0.0000000024     1     1    17    18
 -0.0028447846     1     1    17    19
 -0.0020105492     1     1    18     2
 0.0000000026     1     1    18     3
 -0.1084998372     1     1    18     4
 -0.0000000015     1     1    18     5
 -0.1204946049     1     1    18    10
 0.0192020803     1     1    18    13
 0.0000000046     1     1    18    14
 0.0000000024     1     1    18    17
 0.4876771581     1     1    18    18
 0.0000000027     1     1    18    19
 0.0166653521     1     1    19     3
 -0.0000000001     1     1    19     4
 -0.0283563907     1     1    19     5
 0.0000000006     1     1    19    10
 0.0000000005     1     1    19    13
 -0.0012573978     1     1    19    14
 -0.0028447846     1     1    19    17
 0.0000000027     1     1    19    18
 0.4984336921     1     1    19    19
 -0.2302775867     1     2     2     1
 -0.0001915629     1     2     2     3
 0.0033572760     1     2     2     5
 -0.0000000001     1     2     2    13
 -0.0009617321     1     2     2    14
 -0.0039800810     1     2     2    17
 -0.0000000001     1     2     2    18
 -0.0004372118     1     2     2    19
 0.3406150733     1     2     3     4
 0.0512834480     1     2     3    10
 0.0844405046     1     2     3    13
 -0.1131159473     1     2     3    18
 0.0003752467     1     2     4     1
 0.3406160141     1     2     4     3
 0.0880217899     1     2     4     5
 0.1644465196     1     2     4    14
 -0.0414203026     1     2     4    17
 0.0024616364     1     2     4    19
 0.0000000001     1     2     5     1
 0.0880348399     1     2     5     4
 -0.3110982902     1     2     5    10
 0.1599835896     1     2     5    13
 0.0622768310     1     2     5    18
 -0.1686047588     1     2     6     8
 0.2723017929     1     2     6     9
 -0.0906719538     1     2     6    15
 -0.1601585249     1     2     6    16
 0.2723017929     1     2     7     8
 0.1686047588     1     2     7     9
 -0.1601585249     1     2     7    15
 0.0906719538     1     2     7    16
 -0.1685782394     1     2     8     6
 0.2722589632     1     2     8     7
 -0.0133398930     1     2     8    11
 -0.2142960686     1     2     8    12
 0.2722589632     1     2     9     6
 0.1685782394     1     2     9     7
 0.2142960686     1     2     9    11
 -0.0133398930     1     2     9    12
 -0.0035671419     1     2    10     1
 0.0512750088     1     2    10     3
 -0.3109944679     1     2    10     5
 0.1153913019     1     2    10    14
 0.2165800600     1     2    10    17
 -0.0271121015     1     2    10    19
 -0.0133434990     1     2    11     8
 0.2143539964     1     2    11     9
 -0.2617255987     1     2    11    15
 -0.1653350326     1     2    11    16
 -0.2143539964     1     2    12     8
 -0.0133434990     1     2    12     9
 0.1653350326     1     2    12    15
 -0.2617255987     1     2    12    16
 0.0031345217     1     2    13     1
 0.0844480260     1     2    13     3
 0.1598920107     1     2    13     5
 0.1023857244     1     2    13    14
 -0.2871987542     1     2    13    17
 -0.0211951052     1     2    13    19
 -0.0000000001     1     2    14     1
 0.1644426501     1     2    14     4
 0.1154224752     1     2    14    10
 0.1023581241     1     2    14    13
 -0.1991417920     1     2    14    18
 -0.0906430405     1     2    15     6
 -0.1601074538     1     2    15     7
 -0.2616683854     1     2    15    11
 0.1652988903     1     2    15    12
 -0.1601074538     1     2    16     6
 0.0906430405     1     2    16     7
 -0.1652988903     1     2    16    11
 -0.2616683854     1     2    16    12
 -0.0414360060     1     2    17     4
 0.2167033551     1     2    17    10
 -0.2873076173     1     2    17    13
 -0.1028864903     1     2    17    18
 0.0020105492     1     2    18     1
 -0.1131112235     1     2    18     3
 0.0622197655     1     2    18     5
 -0.1991245286     1     2    18    14
 -0.1028188720     1     2    18    17
 -0.1159028751     1     2    18    19
 0.0024592106     1     2    19     4
 -0.0270935834     1     2    19    10
 -0.0212117702     1     2    19    13
 -0.1159130429     1     2    19    18
 0.0001915629     1     3     2     2
 -0.0000009408     1     3     2     4
 0.0000084392     1     3     2    10
 -0.0000075214     1     3     2    13
 -0.0000047238     1     3     2    18
 -0.5696454061     1     3     3     1
 0.0026377905     1     3     3     5
 -0.0014768068     1     3     3    14
 -0.0035904609     1     3     3    17
 -0.0000000001     1     3     3    18
 -0.0003629300     1     3     3    19
 0.0000000079     1     3     4     1
 -0.3406160141     1     3     4     2
 -0.0004522000     1     3     4     4
 0.0036010322     1     3     4    10
 -0.0034962397     1     3     4    13
 -0.0014240855     1     3     4    18
 0.0053458486     1     3     5     1
 -0.0178497609     1     3     5     5
 -0.0000000003     1     3     5    10
 0.0000000003     1     3     5    13
 0.0052261067     1     3     5    14
 0.0231786042     1     3     5    17
 0.0000000001     1     3     5    18
 0.0008155010     1     3     5    19
 -0.0177603299     1     3     6     6
 -0.0000000001     1     3     6     8
 0.0000000001     1     3     6     9
 -0.0200069998     1     3     6    11
 -0.0107290302     1     3     6    12
 -0.0000000001     1     3     6    15
 -0.0000000003     1     3     6    16
 -0.0177603299     1     3     7     7
 0.0000000001     1     3     7     8
 0.0000000001     1     3     7     9
 -0.0107290302     1     3     7    11
 0.0200069998     1     3     7    12
 -0.0000000003     1     3     7    15
 0.0000000001     1     3     7    16
 -0.0000000001     1     3     8     6
 0.0000000001     1     3     8     7
 -0.0187084736     1     3     8     8
 -0.0000000003     1     3     8    12
 0.0107582585     1     3     8    15
 -0.0196348915     1     3     8    16
 0.0000000001     1     3     9     6
 0.0000000001     1     3     9     7
 -0.0187084736     1     3     9     9
 0.0000000003     1     3     9    11
 0.0196348915     1     3     9    15
 0.0107582585     1     3     9    16
 0.0000000011     1     3    10     1
 -0.0512750088     1     3    10     2
 0.0026901161     1     3    10     4
 -0.0000000003     1     3    10     5
 -0.0197632088     1     3    10    10
 0.0185963877     1     3    10    13
 0.0000000003     1     3    10    17
 0.0111425134     1     3    10    18
 -0.0132630828     1     3    11     6
 -0.0071125115     1     3    11     7
 0.0000000002     1     3    11     9
 -0.0196969436     1     3    11    11
 -0.0000000002     1     3    11    15
 -0.0000000002     1     3    11    16
 -0.0071125115     1     3    12     6
 0.0132630828     1     3    12     7
 -0.0000000002     1     3    12     8
 -0.0196969436     1     3    12    12
 0.0000000002     1     3    12    15
 -0.0000000002     1     3    12    16
 0.0000000019     1     3    13     1
 -0.0844480260     1     3    13     2
 -0.0017695130     1     3    13     4
 0.0000000002     1     3    13     5
 0.0129872029     1     3    13    10
 -0.0130635139     1     3    13    13
 -0.0000000001     1     3    13    14
 -0.0000000002     1     3    13    17
 -0.0072907068     1     3    13    18
 -0.1617800355     1     3    14     1
 0.0038044466     1     3    14     5
 -0.0000000001     1     3    14    13
 -0.0016331221     1     3    14    14
 -0.0048535006     1     3    14    17
 -0.0000000001     1     3    14    18
 -0.0000430056     1     3    14    19
 -0.0000000002     1     3    15     7
 0.0073403803     1     3    15     8
 0.0133969240     1     3    15     9
 -0.0000000002     1     3    15    11
 0.0000000002     1     3    15    12
 -0.0188857382     1     3    15    15
 -0.0000000002     1     3    16     6
 -0.0133969240     1     3    16     8
 0.0073403803     1     3    16     9
 -0.0000000002     1     3    16    11
 -0.0000000002     1     3    16    12
 -0.0188857382     1     3    16    16
 0.0242395077     1     3    17     1
 0.0146324869     1     3    17     5
 0.0000000002     1     3    17    10
 -0.0000000002     1     3    17    13
 -0.0039823133     1     3    17    14
 -0.0196023984     1     3    17    17
 -0.0000000001     1     3    17    18
 -0.0005635310     1     3    17    19
 -0.0000000026     1     3    18     1
 0.1131112235     1     3    18     2
 -0.0009453415     1     3    18     4
 0.0000000001     1     3    18     5
 0.0072514667     1     3    18    10
 -0.0069938775     1     3    18    13
 -0.0000000001     1     3    18    14
 -0.0000000001     1     3    18    17
 -0.0048541005     1     3    18    18
 -0.0166653521     1     3    19     1
 0.0007873254     1     3    19     5
 -0.0001543483     1     3    19    14
 -0.0011914724     1     3    19    17
 -0.0027014367     1     3    19    19
 0.0003752467     1     4     2     1
 0.0000009408     1     4     2     3
 -0.0000130500     1     4     2     5
 0.0000038695     1     4     2    14
 0.0000157034     1     4     2    17
 0.0000024258     1     4     2    19
 0.0000000079     1     4     3     1
 -0.3406150733     1     4     3     2
 0.0009109161     1     4     3    10
 -0.0017267267     1     4     3    13
 -0.0004787440     1     4     3    18
 -0.5770983140     1     4     4     1
 0.0004522000     1     4     4     3
 -0.0005749875     1     4     4     5
 -0.0001306120     1     4     4    14
 0.0016340926     1     4     4    17
 0.0000909081     1     4     4    19
 0.0000000021     1     4     5     1
 -0.0880348399     1     4     5     2
 0.0000000002     1     4     5     5
 0.0192623320     1     4     5    10
 -0.0172262864     1     4     5    13
 -0.0000000001     1     4     5    14
 -0.0000000003     1     4     5    17
 -0.0121281547     1     4     5    18
 0.0000000003     1     4     6     6
 0.0096972301     1     4     6     8
 -0.0156613204     1     4     6     9
 0.0000000003     1     4     6    11
 0.0000000001     1     4     6    12
 0.0109787573     1     4     6    15
 0.0193923424     1     4     6    16
 0.0000000003     1     4     7     7
 -0.0156613204     1     4     7     8
 -0.0096972301     1     4     7     9
 0.0000000001     1     4     7    11
 -0.0000000003     1     4     7    12
 0.0193923424     1     4     7    15
 -0.0109787573     1     4     7    16
 0.0099056593     1     4     8     6
 -0.0159979398     1     4     8     7
 0.0000000003     1     4     8     8
 0.0014996856     1     4     8    11
 0.0240914018     1     4     8    12
 -0.0000000001     1     4     8    15
 0.0000000003     1     4     8    16
 -0.0159979398     1     4     9     6
 -0.0099056593     1     4     9     7
 0.0000000003     1     4     9     9
 -0.0240914018     1     4     9    11
 0.0014996856     1     4     9    12
 -0.0000000003     1     4     9    15
 -0.0000000001     1     4     9    16
 -0.0367449738     1     4    10     1
 -0.0026901161     1     4    10     3
 0.0188848354     1     4    10     5
 0.0000000003     1     4    10    10
 -0.0000000003     1     4    10    13
 -0.0073890221     1     4    10    14
 -0.0247438798     1     4    10    17
 -0.0000000002     1     4    10    18
 -0.0019232193     1     4    10    19
 0.0000000002     1     4    11     6
 0.0000000001     1     4    11     7
 0.0010359279     1     4    11     8
 -0.0166414583     1     4    11     9
 0.0000000002     1     4    11    11
 0.0173046321     1     4    11    15
 0.0109315326     1     4    11    16
 0.0000000001     1     4    12     6
 -0.0000000002     1     4    12     7
 0.0166414583     1     4    12     8
 0.0010359279     1     4    12     9
 0.0000000002     1     4    12    12
 -0.0109315326     1     4    12    15
 0.0173046321     1     4    12    16
 -0.1184794146     1     4    13     1
 0.0017695130     1     4    13     3
 -0.0118321568     1     4    13     5
 -0.0000000002     1     4    13    10
 0.0000000002     1     4    13    13
 0.0048102392     1     4    13    14
 0.0155972531     1     4    13    17
 0.0000000001     1     4    13    18
 0.0012103186     1     4    13    19
 0.0000000038     1     4    14     1
 -0.1644426501     1     4    14     2
 -0.0046720203     1     4    14    10
 0.0038908852     1     4    14    13
 0.0034049207     1     4    14    18
 0.0074128496     1     4    15     6
 0.0130936967     1     4    15     7
 -0.0000000001     1     4    15     8
 -0.0000000002     1     4    15     9
 0.0165672976     1     4    15    11
 -0.0104657500     1     4    15    12
 0.0000000002     1     4    15    15
 0.0130936967     1     4    16     6
 -0.0074128496     1     4    16     7
 0.0000000002     1     4    16     8
 -0.0000000001     1     4    16     9
 0.0104657500     1     4    16    11
 0.0165672976     1     4    16    12
 0.0000000002     1     4    16    16
 -0.0000000010     1     4    17     1
 0.0414360060     1     4    17     2
 -0.0000000002     1     4    17     5
 -0.0175979200     1     4    17    10
 0.0154485584     1     4    17    13
 0.0000000001     1     4    17    14
 0.0000000002     1     4    17    17
 0.0114555797     1     4    17    18
 0.1084998372     1     4    18     1
 0.0009453415     1     4    18     3
 -0.0067501983     1     4    18     5
 -0.0000000001     1     4    18    10
 0.0000000001     1     4    18    13
 0.0032944958     1     4    18    14
 0.0088000126     1     4    18    17
 0.0000000001     1     4    18    18
 0.0014432972     1     4    18    19
 0.0000000001     1     4    19     1
 -0.0024592106     1     4    19     2
 -0.0000694852     1     4    19    10
 -0.0002645675     1     4    19    13
 0.0005561480     1     4    19    18
 0.0000000001     1     5     2     1
 -0.0033572760     1     5     2     2
 0.0000130500     1     5     2     4
 -0.0001038223     1     5     2    10
 0.0000915789     1     5     2    13
 0.0000570655     1     5     2    18
 0.0053458486     1     5     3     1
 -0.0026377905     1     5     3     3
 0.0000000001     1     5     3    13
 0.0014216601     1     5     3    14
 0.0085461173     1     5     3    17
 0.0000281756     1     5     3    19
 0.0000000021     1     5     4     1
 -0.0880217899     1     5     4     2
 0.0005749875     1     5     4     4
 0.0003774966     1     5     4    10
 -0.0053941296     1     5     4    13
 -0.0000000001     1     5     4    14
 -0.0000000001     1     5     4    17
 -0.0053779564     1     5     4    18
 -0.5445732066     1     5     5     1
 0.0178497609     1     5     5     3
 -0.0000000002     1     5     5     4
 0.0087423022     1     5     5    14
 -0.0022752129     1     5     5    17
 0.0000000001     1     5     5    18
 0.0086460953     1     5     5    19
 -0.0035605881     1     5     6     6
 -0.0016403666     1     5     6    11
 -0.0008796693     1     5     6    12
 -0.0035605881     1     5     7     7
 -0.0008796693     1     5     7    11
 0.0016403666     1     5     7    12
 -0.0035980713     1     5     8     8
 0.0018159916     1     5     8    15
 -0.0033143654     1     5     8    16
 -0.0035980713     1     5     9     9
 0.0033143654     1     5     9    15
 0.0018159916     1     5     9    16
 -0.0000000072     1     5    10     1
 0.3109944679     1     5    10     2
 0.0000000003     1     5    10     3
 -0.0188848354     1     5    10     4
 -0.0081465627     1     5    10    10
 -0.0023253268     1     5    10    13
 0.0000000001     1     5    10    14
 0.0131826246     1     5    10    18
 0.0000000001     1     5    10    19
 -0.0020048410     1     5    11     6
 -0.0010751237     1     5    11     7
 -0.0047523529     1     5    11    11
 -0.0010751237     1     5    12     6
 0.0020048410     1     5    12     7
 -0.0047523529     1     5    12    12
 0.0000000038     1     5    13     1
 -0.1598920107     1     5    13     2
 -0.0000000002     1     5    13     3
 0.0118321568     1     5    13     4
 0.0043716994     1     5    13    10
 0.0058930358     1     5    13    13
 -0.0000000002     1     5    13    14
 -0.0096883370     1     5    13    18
 -0.0000000001     1     5    13    19
 0.0150236087     1     5    14     1
 -0.0038044466     1     5    14     3
 -0.0062665611     1     5    14    14
 -0.0037358864     1     5    14    17
 -0.0000000001     1     5    14    18
 -0.0015640052     1     5    14    19
 0.0010556363     1     5    15     8
 0.0019266413     1     5    15     9
 -0.0030697638     1     5    15    15
 -0.0019266413     1     5    16     8
 0.0010556363     1     5    16     9
 -0.0030697638     1     5    16    16
 0.1951954511     1     5    17     1
 -0.0146324869     1     5    17     3
 0.0000000002     1     5    17     4
 0.0000000001     1     5    17    13
 -0.0163407264     1     5    17    14
 -0.0013823410     1     5    17    17
 -0.0000000002     1     5    17    18
 -0.0047977846     1     5    17    19
 0.0000000015     1     5    18     1
 -0.0622197655     1     5    18     2
 -0.0000000001     1     5    18     3
 0.0067501983     1     5    18     4
 0.0024571196     1     5    18    10
 0.0046214538     1     5    18    13
 -0.0000000001     1     5    18    14
 -0.0070201922     1     5    18    18
 0.0283563907     1     5    19     1
 -0.0007873254     1     5    19     3
 0.0008447092     1     5    19    14
 0.0074146274     1     5    19    17
 0.0000000001     1     5    19    18
 -0.0013679665     1     5    19    19
 -0.0000265194     1     6     2     8
 0.0000428297     1     6     2     9
 -0.0000289133     1     6     2    15
 -0.0000510711     1     6     2    16
 -0.0067439170     1     6     3    11
 -0.0036165187     1     6     3    12
 -0.0000000001     1     6     3    15
 -0.0000000001     1     6     3    16
 -0.0002084292     1     6     4     8
 0.0003366194     1     6     4     9
 0.0000000001     1     6     4    11
 0.0035659077     1     6     4    15
 0.0062986457     1     6     4    16
 0.0003644744     1     6     5    11
 0.0001954544     1     6     5    12
 -0.5360536073     1     6     6     1
 0.0177603299     1     6     6     3
 -0.0000000003     1     6     6     4
 0.0035605881     1     6     6     5
 0.0097003138     1     6     6    14
 -0.0037843095     1     6     6    17
 -0.0037207517     1     6     6    19
 -0.0000000040     1     6     8     1
 0.1685782394     1     6     8     2
 0.0000000001     1     6     8     3
 -0.0099056593     1     6     8     4
 -0.0025479201     1     6     8    10
 -0.0026529126     1     6     8    13
 0.0036621763     1     6     8    18
 0.0000000064     1     6     9     1
 -0.2722589632     1     6     9     2
 -0.0000000001     1     6     9     3
 0.0159979398     1     6     9     4
 0.0041149680     1     6     9    10
 0.0042845343     1     6     9    13
 -0.0000000001     1     6     9    14
 -0.0059145256     1     6     9    18
 0.0000415304     1     6    10     8
 -0.0000670730     1     6    10     9
 0.0002459295     1     6    10    15
 0.0004343978     1     6    10    16
 -0.1793902172     1     6    11     1
 0.0132630828     1     6    11     3
 -0.0000000002     1     6    11     4
 0.0020048410     1     6    11     5
 -0.0000000001     1     6    11    13
 0.0141423476     1     6    11    14
 -0.0017793162     1     6    11    17
 0.0000000001     1     6    11    18
 -0.0009921633     1     6    11    19
 -0.0962004834     1     6    12     1
 0.0071125115     1     6    12     3
 -0.0000000001     1     6    12     4
 0.0010751237     1     6    12     5
 0.0075840295     1     6    12    14
 -0.0009541829     1     6    12    17
 -0.0005320613     1     6    12    19
 0.0000019016     1     6    13     8
 -0.0000030710     1     6    13     9
 -0.0004730748     1     6    13    15
 -0.0008356163     1     6    13    16
 0.0020696727     1     6    14    11
 0.0011098906     1     6    14    12
 0.0000000001     1     6    14    15
 -0.0000000021     1     6    15     1
 0.0906430405     1     6    15     2
 -0.0074128496     1     6    15     4
 -0.0015129623     1     6    15    10
 -0.0046436416     1     6    15    13
 0.0000000001     1     6    15    14
 0.0054884597     1     6    15    18
 -0.0000000037     1     6    16     1
 0.1601074538     1     6    16     2
 0.0000000002     1     6    16     3
 -0.0130936967     1     6    16     4
 -0.0026724230     1     6    16    10
 -0.0082023026     1     6    16    13
 0.0000000001     1     6    16    14
 0.0096945481     1     6    16    18
 -0.0004429066     1     6    17    11
 -0.0002375148     1     6    17    12
 -0.0001542087     1     6    18     8
 0.0002490518     1     6    18     9
 0.0000000001     1     6    18    11
 0.0017392377     1     6    18    15
 0.0030721047     1     6    18    16
 0.0031603553     1     6    19    11
 0.0016947842     1     6    19    12
 0.0000000001     1     6    19    16
 0.0000428297     1     7     2     8
 0.0000265194     1     7     2     9
 -0.0000510711     1     7     2    15
 0.0000289133     1     7     2    16
 -0.0036165187     1     7     3    11
 0.0067439170     1     7     3    12
 -0.0000000001     1     7     3    15
 0.0000000001     1     7     3    16
 0.0003366194     1     7     4     8
 0.0002084292     1     7     4     9
 -0.0000000001     1     7     4    12
 0.0062986457     1     7     4    15
 -0.0035659077     1     7     4    16
 0.0001954544     1     7     5    11
 -0.0003644744     1     7     5    12
 -0.5360536073     1     7     7     1
 0.0177603299     1     7     7     3
 -0.0000000003     1     7     7     4
 0.0035605881     1     7     7     5
 0.0097003138     1     7     7    14
 -0.0037843095     1     7     7    17
 -0.0037207517     1     7     7    19
 0.0000000064     1     7     8     1
 -0.2722589632     1     7     8     2
 -0.0000000001     1     7     8     3
 0.0159979398     1     7     8     4
 0.0041149680     1     7     8    10
 0.0042845343     1     7     8    13
 -0.0000000001     1     7     8    14
 -0.0059145256     1     7     8    18
 0.0000000040     1     7     9     1
 -0.1685782394     1     7     9     2
 -0.0000000001     1     7     9     3
 0.0099056593     1     7     9     4
 0.0025479201     1     7     9    10
 0.0026529126     1     7     9    13
 -0.0036621763     1     7     9    18
 -0.0000670730     1     7    10     8
 -0.0000415304     1     7    10     9
 0.0004343978     1     7    10    15
 -0.0002459295     1     7    10    16
 -0.0962004834     1     7    11     1
 0.0071125115     1     7    11     3
 -0.0000000001     1     7    11     4
 0.0010751237     1     7    11     5
 0.0075840295     1     7    11    14
 -0.0009541829     1     7    11    17
 -0.0005320613     1     7    11    19
 0.1793902172     1     7    12     1
 -0.0132630828     1     7    12     3
 0.0000000002     1     7    12     4
 -0.0020048410     1     7    12     5
 0.0000000001     1     7    12    13
 -0.0141423476     1     7    12    14
 0.0017793162     1     7    12    17
 -0.0000000001     1     7    12    18
 0.0009921633     1     7    12    19
 -0.0000030710     1     7    13     8
 -0.0000019016     1     7    13     9
 -0.0008356163     1     7    13    15
 0.0004730748     1     7    13    16
 0.0011098906     1     7    14    11
 -0.0020696727     1     7    14    12
 -0.0000000001     1     7    14    16
 -0.0000000037     1     7    15     1
 0.1601074538     1     7    15     2
 0.0000000002     1     7    15     3
 -0.0130936967     1     7    15     4
 -0.0026724230     1     7    15    10
 -0.0082023026     1     7    15    13
 0.0000000001     1     7    15    14
 0.0096945481     1     7    15    18
 0.0000000021     1     7    16     1
 -0.0906430405     1     7    16     2
 0.0074128496     1     7    16     4
 0.0015129623     1     7    16    10
 0.0046436416     1     7    16    13
 -0.0000000001     1     7    16    14
 -0.0054884597     1     7    16    18
 -0.0002375148     1     7    17    11
 0.0004429066     1     7    17    12
 0.0002490518     1     7    18     8
 0.0001542087     1     7    18     9
 -0.0000000001     1     7    18    12
 0.0030721047     1     7    18    15
 -0.0017392377     1     7    18    16
 0.0016947842     1     7    19    11
 -0.0031603553     1     7    19    12
 0.0000000001     1     7    19    15
 0.0000265194     1     8     2     6
 -0.0000428297     1     8     2     7
 0.0000036060     1     8     2    11
 0.0000579278     1     8     2    12
 -0.0000000001     1     8     3    12
 0.0034178782     1     8     3    15
 -0.0062379675     1     8     3    16
 0.0002084292     1     8     4     6
 -0.0003366194     1     8     4     7
 0.0004637577     1     8     4    11
 0.0074499435     1     8     4    12
 0.0000000001     1     8     4    16
 0.0007603553     1     8     5    15
 -0.0013877241     1     8     5    16
 -0.0000000040     1     8     6     1
 0.1686047588     1     8     6     2
 0.0000000001     1     8     6     3
 -0.0096972301     1     8     6     4