&FCI NORB=  9,NELEC= 12,MS2=0,
 ORBSYM=1,1,1,1,1,1,1,1,1
 ISYM=1,
&END
 0.2705894082     1     1     2     2
 0.0000000013     1     1     2     7
 -0.0147880348     1     1     2     8
 0.2256581959     1     1     3     3
 -0.0000000109     1     1     3     4
 0.0000000041     1     1     3     9
 -0.0000000109     1     1     4     3
 0.2304074668     1     1     4     4
 -0.0017178053     1     1     4     9
 0.2538038866     1     1     5     5
 0.0000000016     1     1     5     6
 0.0000000016     1     1     6     5
 0.2813454132     1     1     6     6
 0.0000000013     1     1     7     2
 0.2669735488     1     1     7     7
 -0.0000000007     1     1     7     8
 -0.0147880348     1     1     8     2
 -0.0000000007     1     1     8     7
 0.2477388523     1     1     8     8
 0.0000000041     1     1     9     3
 -0.0017178053     1     1     9     4
 0.1882621523     1     1     9     9
 -0.2705894082     1     2     2     1
 -0.0004704607     1     2     3     5
 -0.0000000011     1     2     3     6
 -0.0000000011     1     2     4     5
 0.0004704163     1     2     4     6
 0.0430168144     1     2     5     3
 0.0000001008     1     2     5     4
 -0.0000000001     1     2     5     9
 0.0000001008     1     2     6     3
 -0.0430165935     1     2     6     4
 -0.0020278548     1     2     6     9
 -0.0000000013     1     2     7     1
 0.0147880348     1     2     8     1
 -0.0000000001     1     2     9     5
 -0.0006509648     1     2     9     6
 -0.0434634334     1     3     2     5
 -0.0000001019     1     3     2     6
 -0.2256581959     1     3     3     1
 0.0000000109     1     3     4     1
 -0.0430168144     1     3     5     2
 -0.0000000623     1     3     5     7
 -0.0171185503     1     3     5     8
 -0.0000001008     1     3     6     2
 -0.0355754248     1     3     6     7
 0.0000000626     1     3     6     8
 -0.0000000613     1     3     7     5
 -0.0345253424     1     3     7     6
 -0.0166581688     1     3     8     5
 0.0000000601     1     3     8     6
 -0.0000000041     1     3     9     1
 -0.0000001019     1     4     2     5
 0.0434632086     1     4     2     6
 0.0000000109     1     4     3     1
 -0.2304074668     1     4     4     1
 -0.0000001008     1     4     5     2
 0.0261877740     1     4     5     7
 -0.0000000415     1     4     5     8
 0.0430165935     1     4     6     2
 -0.0000000834     1     4     6     7
 -0.0265110164     1     4     6     8
 0.0257737405     1     4     7     5
 -0.0000000810     1     4     7     6
 -0.0000000403     1     4     8     5
 -0.0254088387     1     4     8     6
 0.0017178053     1     4     9     1
 0.0434634334     1     5     2     3
 0.0000001019     1     5     2     4
 0.0004704607     1     5     3     2
 -0.0000000003     1     5     3     7
 -0.0002405309     1     5     3     8
 0.0000000011     1     5     4     2
 0.0000974434     1     5     4     7
 -0.0000000006     1     5     4     8
 -0.2538038866     1     5     5     1
 -0.0000000016     1     5     6     1
 0.0000000613     1     5     7     3
 -0.0257737405     1     5     7     4
 -0.0005553310     1     5     7     9
 0.0166581688     1     5     8     3
 0.0000000403     1     5     8     4
 0.0000000001     1     5     9     2
 -0.0002517129     1     5     9     7
 0.0000001019     1     6     2     3
 -0.0434632086     1     6     2     4
 -0.0014413121     1     6     2     9
 0.0000000011     1     6     3     2
 -0.0006033413     1     6     3     7
 0.0000000017     1     6     3     8
 -0.0004704163     1     6     4     2
 -0.0000000014     1     6     4     7
 -0.0007523284     1     6     4     8
 -0.0000000016     1     6     5     1
 -0.2813454132     1     6     6     1
 0.0345253424     1     6     7     3
 0.0000000810     1     6     7     4
 -0.0000000601     1     6     8     3
 0.0254088387     1     6     8     4
 0.0005561064     1     6     8     9
 0.0006509648     1     6     9     2
 0.0002494310     1     6     9     8
 -0.0000000013     1     7     2     1
 0.0000000003     1     7     3     5
 0.0006033413     1     7     3     6
 -0.0000974434     1     7     4     5
 0.0000000014     1     7     4     6
 0.0000000623     1     7     5     3
 -0.0261877740     1     7     5     4
 0.0000588760     1     7     5     9
 0.0355754248     1     7     6     3
 0.0000000834     1     7     6     4
 -0.2669735488     1     7     7     1
 0.0000000007     1     7     8     1
 0.0002517129     1     7     9     5
 0.0147880348     1     8     2     1
 0.0002405309     1     8     3     5
 -0.0000000017     1     8     3     6
 0.0000000006     1     8     4     5
 0.0007523284     1     8     4     6
 0.0171185503     1     8     5     3
 0.0000000415     1     8     5     4
 -0.0000000626     1     8     6     3
 0.0265110164     1     8     6     4
 -0.0000621651     1     8     6     9
 0.0000000007     1     8     7     1
 -0.2477388523     1     8     8     1
 -0.0002494310     1     8     9     6
 0.0014413121     1     9     2     6
 -0.0000000041     1     9     3     1
 0.0017178053     1     9     4     1
 0.0000000001     1     9     5     2
 -0.0000588760     1     9     5     7
 0.0020278548     1     9     6     2
 0.0000621651     1     9     6     8
 0.0005553310     1     9     7     5
 -0.0005561064     1     9     8     6
 -0.1882621523     1     9     9     1
 -0.2705894082     2     1     1     2
 -0.0000000013     2     1     1     7
 0.0147880348     2     1     1     8
 0.0430168144     2     1     3     5
 0.0000001008     2     1     3     6
 0.0000001008     2     1     4     5
 -0.0430165935     2     1     4     6
 -0.0004704607     2     1     5     3
 -0.0000000011     2     1     5     4
 -0.0000000001     2     1     5     9
 -0.0000000011     2     1     6     3
 0.0004704163     2     1     6     4
 -0.0006509648     2     1     6     9
 -0.0000000001     2     1     9     5
 -0.0020278548     2     1     9     6
 0.2705894082     2     2     1     1
 0.2704928247     2     2     3     3
 0.2704928087     2     2     4     4
 0.0000012632     2     2     4     9
 0.2144097055     2     2     5     5
 0.2144097353     2     2     6     6
 0.2520782649     2     2     7     7
 0.2520785131     2     2     8     8
 0.0000012632     2     2     9     4
 0.1880264160     2     2     9     9
 0.0434634334     2     3     1     5
 0.0000001019     2     3     1     6
 -0.2704928247     2     3     3     2
 -0.0000000109     2     3     3     7
 0.0023454936     2     3     3     8
 0.0023454817     2     3     4     7
 0.0000000109     2     3     4     8
 0.0004704607     2     3     5     1
 0.0000000011     2     3     6     1
 0.0000001893     2     3     7     4
 0.0005692622     2     3     7     9
 -0.0000000013     2     3     8     9
 -0.0012125023     2     3     9     7
 0.0000000028     2     3     9     8
 0.0000001019     2     4     1     5
 -0.0434632086     2     4     1     6
 0.0023453251     2     4     3     7
 0.0000000109     2     4     3     8
 -0.2704928087     2     4     4     2
 0.0000000109     2     4     4     7
 -0.0023453851     2     4     4     8
 0.0000000011     2     4     5     1
 -0.0004704163     2     4     6     1
 -0.0000001893     2     4     7     3
 0.0000000013     2     4     7     9
 0.0005698075     2     4     8     9
 -0.0000012632     2     4     9     2
 -0.0000000028     2     4     9     7
 -0.0012125874     2     4     9     8
 -0.0434634334     2     5     1     3
 -0.0000001019     2     5     1     4
 -0.0430168144     2     5     3     1
 -0.0000001008     2     5     4     1
 -0.2144097055     2     5     5     2
 0.0000000008     2     5     5     7
 0.0263689936     2     5     5     8
 0.0263692913     2     5     6     7
 -0.0000000008     2     5     6     8
 -0.0000022167     2     5     7     6
 0.0000000001     2     5     9     1
 -0.0000001019     2     6     1     3
 0.0434632086     2     6     1     4
 0.0014413121     2     6     1     9
 -0.0000001008     2     6     3     1
 0.0430165935     2     6     4     1
 0.0263712542     2     6     5     7
 -0.0000000008     2     6     5     8
 -0.2144097353     2     6     6     2
 -0.0000000008     2     6     6     7
 -0.0263714707     2     6     6     8
 0.0000022167     2     6     7     5
 0.0020278548     2     6     9     1
 0.0000000013     2     7     1     1
 0.0000000109     2     7     3     3
 -0.0023453251     2     7     3     4
 0.0020070454     2     7     3     9
 -0.0023454817     2     7     4     3
 -0.0000000109     2     7     4     4
 0.0000000046     2     7     4     9
 -0.0000000008     2     7     5     5
 -0.0263712542     2     7     5     6
 -0.0263692913     2     7     6     5
 0.0000000008     2     7     6     6
 -0.2520782649     2     7     7     2
 0.0000006167     2     7     7     8
 0.0012125023     2     7     9     3
 0.0000000028     2     7     9     4
 -0.0147880348     2     8     1     1
 -0.0023454936     2     8     3     3
 -0.0000000109     2     8     3     4
 -0.0000000046     2     8     3     9
 -0.0000000109     2     8     4     3
 0.0023453851     2     8     4     4
 0.0020074200     2     8     4     9
 -0.0263689936     2     8     5     5
 0.0000000008     2     8     5     6
 0.0000000008     2     8     6     5
 0.0263714707     2     8     6     6
 -0.0000006167     2     8     7     7
 -0.2520785131     2     8     8     2
 -0.0000000028     2     8     9     3
 0.0012125874     2     8     9     4
 -0.0000001249     2     8     9     9
 -0.0014413121     2     9     1     6
 -0.0020070454     2     9     3     7
 0.0000000046     2     9     3     8
 -0.0000012632     2     9     4     2
 -0.0000000046     2     9     4     7
 -0.0020074200     2     9     4     8
 0.0000000001     2     9     5     1
 0.0006509648     2     9     6     1
 -0.0005692622     2     9     7     3
 -0.0000000013     2     9     7     4
 0.0000000013     2     9     8     3
 -0.0005698075     2     9     8     4
 -0.1880264160     2     9     9     2
 0.0000001249     2     9     9     8
 -0.2256581959     3     1     1     3
 0.0000000109     3     1     1     4
 -0.0000000041     3     1     1     9
 -0.0430168144     3     1     2     5
 -0.0000001008     3     1     2     6
 -0.0434634334     3     1     5     2
 -0.0000000613     3     1     5     7
 -0.0166581688     3     1     5     8
 -0.0000001019     3     1     6     2
 -0.0345253424     3     1     6     7
 0.0000000601     3     1     6     8
 -0.0000000623     3     1     7     5
 -0.0355754248     3     1     7     6
 -0.0171185503     3     1     8     5
 0.0000000626     3     1     8     6
 0.0004704607     3     2     1     5
 0.0000000011     3     2     1     6
 -0.2704928247     3     2     2     3
 0.0000001893     3     2     4     7
 0.0434634334     3     2     5     1
 0.0000001019     3     2     6     1
 -0.0000000109     3     2     7     3
 0.0023454817     3     2     7     4
 -0.0012125023     3     2     7     9
 0.0023454936     3     2     8     3
 0.0000000109     3     2     8     4
 0.0000000028     3     2     8     9
 0.0005692622     3     2     9     7
 -0.0000000013     3     2     9     8
 0.2256581959     3     3     1     1
 0.2704928247     3     3     2     2
 0.0000000109     3     3     2     7
 -0.0023454936     3     3     2     8
 0.2585111311     3     3     4     4
 0.0000016194     3     3     4     9
 0.2666052837     3     3     5     5
 0.0000000072     3     3     5     6
 0.0000000072     3     3     6     5
 0.2696758888     3     3     6     6
 0.0000000109     3     3     7     2
 0.2608020872     3     3     7     7
 -0.0000000093     3     3     7     8
 -0.0023454936     3     3     8     2
 -0.0000000093     3     3     8     7
 0.2567711605     3     3     8     8
 0.0000016194     3     3     9     4
 0.1895599884     3     3     9     9
 -0.0000000109     3     4     1     1
 -0.0023453251     3     4     2     7
 -0.0000000109     3     4     2     8
 -0.2585111311     3     4     4     3
 0.0000000001     3     4     4     9
 -0.0000000072     3     4     5     5
 -0.0019223250     3     4     5     6
 -0.0011486936     3     4     6     5
 0.0000000072     3     4     6     6
 -0.0023454817     3     4     7     2
 0.0000000093     3     4     7     7
 0.0011732495     3     4     7     8
 -0.0000000109     3     4     8     2
 0.0028564812     3     4     8     7
 -0.0000000093     3     4     8     8
 -0.0000016194     3     4     9     3
 -0.0004704607     3     5     1     2
 0.0000000003     3     5     1     7
 0.0002405309     3     5     1     8
 0.0430168144     3     5     2     1
 -0.0000757361     3     5     4     6
 -0.2666052837     3     5     5     3
 0.0000000072     3     5     5     4
 0.0000000021     3     5     5     9
 -0.0000000072     3     5     6     3
 0.0011486936     3     5     6     4
 -0.0009068478     3     5     6     9
 0.0000000623     3     5     7     1
 0.0171185503     3     5     8     1
 0.0000029448     3     5     9     6
 -0.0000000011     3     6     1     2
 0.0006033413     3     6     1     7
 -0.0000000017     3     6     1     8
 0.0000001008     3     6     2     1
 0.0000757361     3     6     4     5
 -0.0000000072     3     6     5     3
 0.0019223250     3     6     5     4
 -0.0009016717     3     6     5     9
 -0.2696758888     3     6     6     3
 -0.0000000072     3     6     6     4
 -0.0000000020     3     6     6     9
 0.0355754248     3     6     7     1
 -0.0000000626     3     6     8     1
 -0.0000029448     3     6     9     5
 -0.0000000003     3     7     1     5
 -0.0006033413     3     7     1     6
 -0.0000000109     3     7     2     3
 0.0023453251     3     7     2     4
 -0.0020070454     3     7     2     9
 -0.0000001893     3     7     4     2
 -0.0007808420     3     7     4     8
 0.0000000613     3     7     5     1
 0.0345253424     3     7     6     1
 -0.2608020872     3     7     7     3
 -0.0000000093     3     7     7     4
 -0.0000000007     3     7     7     9
 0.0000000093     3     7     8     3
 -0.0028564812     3     7     8     4
 0.0002698118     3     7     8     9
 -0.0005692622     3     7     9     2
 -0.0000002077     3     7     9     8
 -0.0002405309     3     8     1     5
 0.0000000017     3     8     1     6
 0.0023454936     3     8     2     3
 0.0000000109     3     8     2     4
 0.0000000046     3     8     2     9
 0.0007808420     3     8     4     7
 0.0166581688     3     8     5     1
 -0.0000000601     3     8     6     1
 0.0000000093     3     8     7     3
 -0.0011732495     3     8     7     4
 0.0002781608     3     8     7     9
 -0.2567711605     3     8     8     3
 0.0000000093     3     8     8     4
 0.0000000006     3     8     8     9
 0.0000000013     3     8     9     2
 0.0000002077     3     8     9     7
 0.0000000041     3     9     1     1
 0.0020070454     3     9     2     7
 -0.0000000046     3     9     2     8
 -0.0000016194     3     9     4     3
 -0.0000000001     3     9     4     4
 -0.0000000021     3     9     5     5
 0.0009016717     3     9     5     6
 0.0009068478     3     9     6     5
 0.0000000020     3     9     6     6
 0.0012125023     3     9     7     2
 0.0000000007     3     9     7     7
 -0.0002781608     3     9     7     8
 -0.0000000028     3     9     8     2
 -0.0002698118     3     9     8     7
 -0.0000000006     3     9     8     8
 -0.1895599884     3     9     9     3
 0.0000000109     4     1     1     3
 -0.2304074668     4     1     1     4
 0.0017178053     4     1     1     9
 -0.0000001008     4     1     2     5
 0.0430165935     4     1     2     6
 -0.0000001019     4     1     5     2
 0.0257737405     4     1     5     7
 -0.0000000403     4     1     5     8
 0.0434632086     4     1     6     2
 -0.0000000810     4     1     6     7
 -0.0254088387     4     1     6     8
 0.0261877740     4     1     7     5
 -0.0000000834     4     1     7     6
 -0.0000000415     4     1     8     5
 -0.0265110164     4     1     8     6
 0.0000000011     4     2     1     5
 -0.0004704163     4     2     1     6
 -0.2704928087     4     2     2     4
 -0.0000012632     4     2     2     9
 -0.0000001893     4     2     3     7
 0.0000001019     4     2     5     1
 -0.0434632086     4     2     6     1
 0.0023453251     4     2     7     3
 0.0000000109     4     2     7     4
 -0.0000000028     4     2     7     9
 0.0000000109     4     2     8     3
 -0.0023453851     4     2     8     4
 -0.0012125874     4     2     8     9
 0.0000000013     4     2     9     7
 0.0005698075     4     2     9     8
 -0.0000000109     4     3     1     1
 -0.0023454817     4     3     2     7
 -0.0000000109     4     3     2     8
 -0.2585111311     4     3     3     4
 -0.0000016194     4     3     3     9
 -0.0000000072     4     3     5     5
 -0.0011486936     4     3     5     6
 -0.0019223250     4     3     6     5
 0.0000000072     4     3     6     6
 -0.0023453251     4     3     7     2
 0.0000000093     4     3     7     7
 0.0028564812     4     3     7     8
 -0.0000000109     4     3     8     2
 0.0011732495     4     3     8     7
 -0.0000000093     4     3     8     8
 0.0000000001     4     3     9     4
 0.2304074668     4     4     1     1
 0.2704928087     4     4     2     2
 -0.0000000109     4     4     2     7
 0.0023453851     4     4     2     8
 0.2585111311     4     4     3     3
 -0.0000000001     4     4     3     9
 0.2696758253     4     4     5     5
 -0.0000000072     4     4     5     6
 -0.0000000072     4     4     6     5
 0.2666052019     4     4     6     6
 -0.0000000109     4     4     7     2
 0.2567717579     4     4     7     7
 0.0000000093     4     4     7     8
 0.0023453851     4     4     8     2
 0.0000000093     4     4     8     7
 0.2608017054     4     4     8     8
 -0.0000000001     4     4     9     3
 0.1895610748     4     4     9     9
 -0.0000000011     4     5     1     2
 -0.0000974434     4     5     1     7
 0.0000000006     4     5     1     8
 0.0000001008     4     5     2     1
 0.0000757361     4     5     3     6
 0.0000000072     4     5     5     3
 -0.2696758253     4     5     5     4
 -0.0009087550     4     5     5     9
 0.0019223250     4     5     6     3
 0.0000000072     4     5     6     4
 -0.0000000020     4     5     6     9
 -0.0261877740     4     5     7     1
 0.0000000415     4     5     8     1
 0.0004704163     4     6     1     2
 0.0000000014     4     6     1     7
 0.0007523284     4     6     1     8
 -0.0430165935     4     6     2     1
 -0.0000757361     4     6     3     5
 0.0011486936     4     6     5     3
 0.0000000072     4     6     5     4
 -0.0000000020     4     6     5     9
 -0.0000000072     4     6     6     3
 -0.2666052019     4     6     6     4
 0.0009008910     4     6     6     9
 0.0000000834     4     6     7     1
 0.0265110164     4     6     8     1
 0.0000974434     4     7     1     5
 -0.0000000014     4     7     1     6
 0.0023454817     4     7     2     3
 0.0000000109     4     7     2     4
 -0.0000000046     4     7     2     9
 0.0000001893     4     7     3     2
 0.0007808420     4     7     3     8
 -0.0257737405     4     7     5     1
 0.0000000810     4     7     6     1
 -0.0000000093     4     7     7     3
 -0.2567717579     4     7     7     4
 0.0002759702     4     7     7     9
 -0.0011732495     4     7     8     3
 -0.0000000093     4     7     8     4
 0.0000000006     4     7     8     9
 -0.0000000013     4     7     9     2
 -0.0000000006     4     8     1     5
 -0.0007523284     4     8     1     6
 0.0000000109     4     8     2     3
 -0.0023453851     4     8     2     4
 -0.0020074200     4     8     2     9
 -0.0007808420     4     8     3     7
 0.0000000403     4     8     5     1
 0.0254088387     4     8     6     1
 -0.0028564812     4     8     7     3
 -0.0000000093     4     8     7     4
 0.0000000007     4     8     7     9
 0.0000000093     4     8     8     3
 -0.2608017054     4     8     8     4
 -0.0002694454     4     8     8     9
 -0.0005698075     4     8     9     2
 -0.0017178053     4     9     1     1
 0.0000012632     4     9     2     2
 0.0000000046     4     9     2     7
 0.0020074200     4     9     2     8
 0.0000016194     4     9     3     3
 0.0000000001     4     9     3     4
 0.0009087550     4     9     5     5
 0.0000000020     4     9     5     6
 0.0000000020     4     9     6     5
 -0.0009008910     4     9     6     6
 0.0000000028     4     9     7     2
 -0.0002759702     4     9     7     7
 -0.0000000007     4     9     7     8
 0.0012125874     4     9     8     2
 -0.0000000006     4     9     8     7
 0.0002694454     4     9     8     8
 -0.1895610748     4     9     9     4
 -0.2538038866     5     1     1     5
 -0.0000000016     5     1     1     6
 0.0004704607     5     1     2     3
 0.0000000011     5     1     2     4
 0.0000000001     5     1     2     9
 0.0434634334     5     1     3     2
 0.0000000613     5     1     3     7
 0.0166581688     5     1     3     8
 0.0000001019     5     1     4     2
 -0.0257737405     5     1     4     7
 0.0000000403     5     1     4     8
 -0.0000000003     5     1     7     3
 0.0000974434     5     1     7     4
 -0.0002517129     5     1     7     9
 -0.0002405309     5     1     8     3
 -0.0000000006     5     1     8     4
 -0.0005553310     5     1     9     7
 -0.0430168144     5     2     1     3
 -0.0000001008     5     2     1     4
 0.0000000001     5     2     1     9
 -0.2144097055     5     2     2     5
 -0.0434634334     5     2     3     1
 -0.0000001019     5     2     4     1
 -0.0000022167     5     2     6     7
 0.0000000008     5     2     7     5
 0.0263692913     5     2     7     6
 0.0263689936     5     2     8     5
 -0.0000000008     5     2     8     6
 0.0430168144     5     3     1     2
 0.0000000623     5     3     1     7
 0.0171185503     5     3     1     8
 -0.0004704607     5     3     2     1
 -0.2666052837     5     3     3     5
 -0.0000000072     5     3     3     6
 0.0000000072     5     3     4     5
 0.0011486936     5     3     4     6
 -0.0000757361     5     3     6     4
 0.0000029448     5     3     6     9
 0.0000000003     5     3     7     1
 0.0002405309     5     3     8     1
 0.0000000021     5     3     9     5
 -0.0009068478     5     3     9     6
 0.0000001008     5     4     1     2
 -0.0261877740     5     4     1     7
 0.0000000415     5     4     1     8
 -0.0000000011     5     4     2     1
 0.0000000072     5     4     3     5
 0.0019223250     5     4     3     6
 -0.2696758253     5     4     4     5
 0.0000000072     5     4     4     6
 0.0000757361     5     4     6     3
 -0.0000974434     5     4     7     1
 0.0000000006     5     4     8     1
 -0.0009087550     5     4     9     5
 -0.0000000020     5     4     9     6
 0.2538038866     5     5     1     1
 0.2144097055     5     5     2     2
 -0.0000000008     5     5     2     7
 -0.0263689936     5     5     2     8
 0.2666052837     5     5     3     3
 -0.0000000072     5     5     3     4
 -0.0000000021     5     5     3     9
 -0.0000000072     5     5     4     3
 0.2696758253     5     5     4     4
 0.0009087550     5     5     4     9
 0.2505103804     5     5     6     6
 -0.0000000008     5     5     7     2
 0.2309117411     5     5     7     7
 -0.0000000002     5     5     7     8
 -0.0263689936     5     5     8     2
 -0.0000000002     5     5     8     7
 0.2406040483     5     5     8     8
 -0.0000000021     5     5     9     3
 0.0009087550     5     5     9     4
 0.1878673651     5     5     9     9
 0.0000000016     5     6     1     1
 -0.0263712542     5     6     2     7
 0.0000000008     5     6     2     8
 0.0000000072     5     6     3     3
 -0.0019223250     5     6     3     4
 0.0009016717     5     6     3     9
 -0.0011486936     5     6     4     3
 -0.0000000072     5     6     4     4
 0.0000000020     5     6     4     9
 -0.2505103804     5     6     6     5
 -0.0263692913     5     6     7     2
 0.0000000002     5     6     7     7
 -0.0273242418     5     6     7     8
 0.0000000008     5     6     8     2
 0.0176354476     5     6     8     7
 -0.0000000002     5     6     8     8
 0.0009068478     5     6     9     3
 0.0000000020     5     6     9     4
 -0.0000000623     5     7     1     3
 0.0261877740     5     7     1     4
 -0.0000588760     5     7     1     9
 0.0000000008     5     7     2     5
 0.0263712542     5     7     2     6
 -0.0000000613     5     7     3     1
 0.0257737405     5     7     4     1
 0.0000022167     5     7     6     2
 -0.0448107102     5     7     6     8
 -0.2309117411     5     7     7     5
 -0.0000000002     5     7     7     6
 0.0000000002     5     7     8     5
 -0.0176354476     5     7     8     6
 0.0005553310     5     7     9     1
 -0.0171185503     5     8     1     3
 -0.0000000415     5     8     1     4
 0.0263689936     5     8     2     5
 -0.0000000008     5     8     2     6
 -0.0166581688     5     8     3     1
 -0.0000000403     5     8     4     1
 0.0448107102     5     8     6     7
 0.0000000002     5     8     7     5
 0.0273242418     5     8     7     6
 -0.2406040483     5     8     8     5
 0.0000000002     5     8     8     6
 -0.0000000001     5     9     1     2
 0.0000588760     5     9     1     7
 -0.0000000001     5     9     2     1
 0.0000000021     5     9     3     5
 -0.0009016717     5     9     3     6
 -0.0009087550     5     9     4     5
 -0.0000000020     5     9     4     6
 -0.0000029448     5     9     6     3
 0.0002517129     5     9     7     1
 -0.1878673651     5     9     9     5
 -0.0000000016     6     1     1     5
 -0.2813454132     6     1     1     6
 0.0000000011     6     1     2     3
 -0.0004704163     6     1     2     4
 0.0006509648     6     1     2     9
 0.0000001019     6     1     3     2
 0.0345253424     6     1     3     7
 -0.0000000601     6     1     3     8
 -0.0434632086     6     1     4     2
 0.0000000810     6     1     4     7
 0.0254088387     6     1     4     8
 -0.0006033413     6     1     7     3
 -0.0000000014     6     1     7     4
 0.0000000017     6     1     8     3
 -0.0007523284     6     1     8     4
 0.0002494310     6     1     8     9
 -0.0014413121     6     1     9     2
 0.0005561064     6     1     9     8
 -0.0000001008     6     2     1     3
 0.0430165935     6     2     1     4
 0.0020278548     6     2     1     9
 -0.2144097353     6     2     2     6
 -0.0000001019     6     2     3     1
 0.0434632086     6     2     4     1
 0.0000022167     6     2     5     7
 0.0263712542     6     2     7     5
 -0.0000000008     6     2     7     6
 -0.0000000008     6     2     8     5
 -0.0263714707     6     2     8     6
 0.0014413121     6     2     9     1
 0.0000001008     6     3     1     2
 0.0355754248     6     3     1     7
 -0.0000000626     6     3     1     8
 -0.0000000011     6     3     2     1
 -0.0000000072     6     3     3     5
 -0.2696758888     6     3     3     6
 0.0019223250     6     3     4     5
 -0.0000000072     6     3     4     6
 0.0000757361     6     3     5     4
 -0.0000029448     6     3     5     9
 0.0006033413     6     3     7     1
 -0.0000000017     6     3     8     1
 -0.0009016717     6     3     9     5
 -0.0000000020     6     3     9     6
 -0.0430165935     6     4     1     2
 0.0000000834     6     4     1     7
 0.0265110164     6     4     1     8
 0.0004704163     6     4     2     1
 0.0011486936     6     4     3     5
 -0.0000000072     6     4     3     6
 0.0000000072     6     4     4     5
 -0.2666052019     6     4     4     6
 -0.0000757361     6     4     5     3
 0.0000000014     6     4     7     1
 0.0007523284     6     4     8     1
 -0.0000000020     6     4     9     5
 0.0009008910     6     4     9     6
 0.0000000016     6     5     1     1
 -0.0263692913     6     5     2     7
 0.0000000008     6     5     2     8
 0.0000000072     6     5     3     3
 -0.0011486936     6     5     3     4
 0.0009068478     6     5     3     9
 -0.0019223250     6     5     4     3
 -0.0000000072     6     5     4     4
 0.0000000020     6     5     4     9
 -0.2505103804     6     5     5     6
 -0.0263712542     6     5     7     2
 0.0000000002     6     5     7     7
 0.0176354476     6     5     7     8
 0.0000000008     6     5     8     2
 -0.0273242418     6     5     8     7
 -0.0000000002     6     5     8     8
 0.0009016717     6     5     9     3
 0.0000000020     6     5     9     4
 0.2813454132     6     6     1     1
 0.2144097353     6     6     2     2
 0.0000000008     6     6     2     7
 0.0263714707     6     6     2     8
 0.2696758888     6     6     3     3
 0.0000000072     6     6     3     4
 0.0000000020     6     6     3     9
 0.0000000072     6     6     4     3
 0.2666052019     6     6     4     4
 -0.0009008910     6     6     4     9
 0.2505103804     6     6     5     5
 0.0000000008     6     6     7     2
 0.2406025911     6     6     7     7
 0.0000000002     6     6     7     8
 0.0263714707     6     6     8     2
 0.0000000002     6     6     8     7
 0.2309113622     6     6     8     8
 0.0000000020     6     6     9     3
 -0.0009008910     6     6     9     4
 0.1878682686     6     6     9     9
 -0.0355754248     6     7     1     3
 -0.0000000834     6     7     1     4
 0.0263692913     6     7     2     5
 -0.0000000008     6     7     2     6
 -0.0345253424     6     7     3     1
 -0.0000000810     6     7     4     1
 -0.0000022167     6     7     5     2
 0.0448107102     6     7     5     8
 -0.0000000002     6     7     7     5
 -0.2406025911     6     7     7     6
 0.0273242418     6     7     8     5
 -0.0000000002     6     7     8     6
 0.0000000626     6     8     1     3
 -0.0265110164     6     8     1     4
 0.0000621651     6     8     1     9
 -0.0000000008     6     8     2     5