&FCI NORB=  6,NELEC=  6,MS2=0,
 ORBSYM=1,1,1,1,1,1
 ISYM=1,
&END
 0.4315688281     1     1     2     2
 0.4315688281     1     1     3     3
 0.4294723530     1     1     4     4
 0.4294723530     1     1     5     5
 0.3501998901     1     1     6     6
 -0.4315688281     1     2     2     1
 0.0101712289     1     2     4     6
 0.1071133296     1     2     5     6
 -0.0004990046     1     2     6     4
 -0.0052550242     1     2     6     5
 -0.4315688281     1     3     3     1
 0.1071133296     1     3     4     6
 -0.0101712289     1     3     5     6
 -0.0052550242     1     3     6     4
 0.0004990046     1     3     6     5
 0.0106702335     1     4     2     6
 0.1123683538     1     4     3     6
 -0.4294723530     1     4     4     1
 0.0004990046     1     4     6     2
 0.0052550242     1     4     6     3
 0.1123683538     1     5     2     6
 -0.0106702335     1     5     3     6
 -0.4294723530     1     5     5     1
 0.0052550242     1     5     6     2
 -0.0004990046     1     5     6     3
 -0.0106702335     1     6     2     4
 -0.1123683538     1     6     2     5
 -0.1123683538     1     6     3     4
 0.0106702335     1     6     3     5
 -0.0101712289     1     6     4     2
 -0.1071133296     1     6     4     3
 -0.1071133296     1     6     5     2
 0.0101712289     1     6     5     3
 -0.3501998901     1     6     6     1
 -0.4315688281     2     1     1     2
 -0.0004990046     2     1     4     6
 -0.0052550242     2     1     5     6
 0.0101712289     2     1     6     4
 0.1071133296     2     1     6     5
 0.4315688281     2     2     1     1
 0.4205294939     2     2     3     3
 0.4144232642     2     2     4     4
 -0.0120529404     2     2     4     5
 -0.0120529404     2     2     5     4
 0.2886381278     2     2     5     5
 0.4182633441     2     2     6     6
 -0.4205294939     2     3     3     2
 -0.0120529404     2     3     4     4
 -0.1287483262     2     3     4     5
 0.0029631898     2     3     5     4
 0.0120529404     2     3     5     5
 -0.0106702335     2     4     1     6
 -0.1317115160     2     4     3     5
 -0.4144232642     2     4     4     2
 0.0120529404     2     4     4     3
 0.0120529404     2     4     5     2
 -0.0029631898     2     4     5     3
 -0.0101712289     2     4     6     1
 -0.1123683538     2     5     1     6
 0.1317115160     2     5     3     4
 0.0120529404     2     5     4     2
 0.1287483262     2     5     4     3
 -0.2886381278     2     5     5     2
 -0.0120529404     2     5     5     3
 -0.1071133296     2     5     6     1
 0.0106702335     2     6     1     4
 0.1123683538     2     6     1     5
 0.0004990046     2     6     4     1
 0.0052550242     2     6     5     1
 -0.4182633441     2     6     6     2
 -0.4315688281     3     1     1     3
 -0.0052550242     3     1     4     6
 0.0004990046     3     1     5     6
 0.1071133296     3     1     6     4
 -0.0101712289     3     1     6     5
 -0.4205294939     3     2     2     3
 -0.0120529404     3     2     4     4
 0.0029631898     3     2     4     5
 -0.1287483262     3     2     5     4
 0.0120529404     3     2     5     5
 0.4315688281     3     3     1     1
 0.4205294939     3     3     2     2
 0.2886381278     3     3     4     4
 0.0120529404     3     3     4     5
 0.0120529404     3     3     5     4
 0.4144232642     3     3     5     5
 0.4182633441     3     3     6     6
 -0.1123683538     3     4     1     6
 0.1317115160     3     4     2     5
 0.0120529404     3     4     4     2
 -0.2886381278     3     4     4     3
 0.1287483262     3     4     5     2
 -0.0120529404     3     4     5     3
 -0.1071133296     3     4     6     1
 0.0106702335     3     5     1     6
 -0.1317115160     3     5     2     4
 -0.0029631898     3     5     4     2
 -0.0120529404     3     5     4     3
 -0.0120529404     3     5     5     2
 -0.4144232642     3     5     5     3
 0.0101712289     3     5     6     1
 0.1123683538     3     6     1     4
 -0.0106702335     3     6     1     5
 0.0052550242     3     6     4     1
 -0.0004990046     3     6     5     1
 -0.4182633441     3     6     6     3
 -0.4294723530     4     1     1     4
 0.0004990046     4     1     2     6
 0.0052550242     4     1     3     6
 0.0106702335     4     1     6     2
 0.1123683538     4     1     6     3
 -0.0101712289     4     2     1     6
 -0.4144232642     4     2     2     4
 0.0120529404     4     2     2     5
 0.0120529404     4     2     3     4
 -0.0029631898     4     2     3     5
 -0.1317115160     4     2     5     3
 -0.0106702335     4     2     6     1
 -0.1071133296     4     3     1     6
 0.0120529404     4     3     2     4
 0.1287483262     4     3     2     5
 -0.2886381278     4     3     3     4
 -0.0120529404     4     3     3     5
 0.1317115160     4     3     5     2
 -0.1123683538     4     3     6     1
 0.4294723530     4     4     1     1
 0.4144232642     4     4     2     2
 -0.0120529404     4     4     2     3
 -0.0120529404     4     4     3     2
 0.2886381278     4     4     3     3
 0.4130988449     4     4     5     5
 0.4108113920     4     4     6     6
 -0.0120529404     4     5     2     2
 -0.1287483262     4     5     2     3
 0.0029631898     4     5     3     2
 0.0120529404     4     5     3     3
 -0.4130988449     4     5     5     4
 0.0101712289     4     6     1     2
 0.1071133296     4     6     1     3
 -0.0004990046     4     6     2     1
 -0.0052550242     4     6     3     1
 -0.4108113920     4     6     6     4
 -0.4294723530     5     1     1     5
 0.0052550242     5     1     2     6
 -0.0004990046     5     1     3     6
 0.1123683538     5     1     6     2
 -0.0106702335     5     1     6     3
 -0.1071133296     5     2     1     6
 0.0120529404     5     2     2     4
 -0.2886381278     5     2     2     5
 0.1287483262     5     2     3     4
 -0.0120529404     5     2     3     5
 0.1317115160     5     2     4     3
 -0.1123683538     5     2     6     1
 0.0101712289     5     3     1     6
 -0.0029631898     5     3     2     4
 -0.0120529404     5     3     2     5
 -0.0120529404     5     3     3     4
 -0.4144232642     5     3     3     5
 -0.1317115160     5     3     4     2
 0.0106702335     5     3     6     1
 -0.0120529404     5     4     2     2
 0.0029631898     5     4     2     3
 -0.1287483262     5     4     3     2
 0.0120529404     5     4     3     3
 -0.4130988449     5     4     4     5
 0.4294723530     5     5     1     1
 0.2886381278     5     5     2     2
 0.0120529404     5     5     2     3
 0.0120529404     5     5     3     2
 0.4144232642     5     5     3     3
 0.4130988449     5     5     4     4
 0.4108113920     5     5     6     6
 0.1071133296     5     6     1     2
 -0.0101712289     5     6     1     3
 -0.0052550242     5     6     2     1
 0.0004990046     5     6     3     1
 -0.4108113920     5     6     6     5
 -0.3501998901     6     1     1     6
 -0.0101712289     6     1     2     4
 -0.1071133296     6     1     2     5
 -0.1071133296     6     1     3     4
 0.0101712289     6     1     3     5
 -0.0106702335     6     1     4     2
 -0.1123683538     6     1     4     3
 -0.1123683538     6     1     5     2
 0.0106702335     6     1     5     3
 0.0004990046     6     2     1     4
 0.0052550242     6     2     1     5
 -0.4182633441     6     2     2     6
 0.0106702335     6     2     4     1
 0.1123683538     6     2     5     1
 0.0052550242     6     3     1     4
 -0.0004990046     6     3     1     5
 -0.4182633441     6     3     3     6
 0.1123683538     6     3     4     1
 -0.0106702335     6     3     5     1
 -0.0004990046     6     4     1     2
 -0.0052550242     6     4     1     3
 0.0101712289     6     4     2     1
 0.1071133296     6     4     3     1
 -0.4108113920     6     4     4     6
 -0.0052550242     6     5     1     2
 0.0004990046     6     5     1     3
 0.1071133296     6     5     2     1
 -0.0101712289     6     5     3     1
 -0.4108113920     6     5     5     6
 0.3501998901     6     6     1     1
 0.4182633441     6     6     2     2
 0.4182633441     6     6     3     3
 0.4108113920     6     6     4     4
 0.4108113920     6     6     5     5
0.0 0 0 0 0
 0.4315688281     1     1     2     2
 0.4315688281     1     1     3     3
 0.4294723530     1     1     4     4
 0.4294723530     1     1     5     5
 0.3501998901     1     1     6     6
 -0.4315688281     1     2     2     1
 0.0101712289     1     2     4     6
 0.1071133296     1     2     5     6
 -0.0004990046     1     2     6     4
 -0.0052550242     1     2     6     5
 -0.4315688281     1     3     3     1
 0.1071133296     1     3     4     6
 -0.0101712289     1     3     5     6
 -0.0052550242     1     3     6     4
 0.0004990046     1     3     6     5
 0.0106702335     1     4     2     6
 0.1123683538     1     4     3     6
 -0.4294723530     1     4     4     1
 0.0004990046     1     4     6     2
 0.0052550242     1     4     6     3
 0.1123683538     1     5     2     6
 -0.0106702335     1     5     3     6
 -0.4294723530     1     5     5     1
 0.0052550242     1     5     6     2
 -0.0004990046     1     5     6     3
 -0.0106702335     1     6     2     4
 -0.1123683538     1     6     2     5
 -0.1123683538     1     6     3     4
 0.0106702335     1     6     3     5
 -0.0101712289     1     6     4     2
 -0.1071133296     1     6     4     3
 -0.1071133296     1     6     5     2
 0.0101712289     1     6     5     3
 -0.3501998901     1     6     6     1
 -0.4315688281     2     1     1     2
 -0.0004990046     2     1     4     6
 -0.0052550242     2     1     5     6
 0.0101712289     2     1     6     4
 0.1071133296     2     1     6     5
 0.4315688281     2     2     1     1
 0.4205294939     2     2     3     3
 0.4144232642     2     2     4     4
 -0.0120529404     2     2     4     5
 -0.0120529404     2     2     5     4
 0.2886381278     2     2     5     5
 0.4182633441     2     2     6     6
 -0.4205294939     2     3     3     2
 -0.0120529404     2     3     4     4
 -0.1287483262     2     3     4     5
 0.0029631898     2     3     5     4
 0.0120529404     2     3     5     5
 -0.0106702335     2     4     1     6
 -0.1317115160     2     4     3     5
 -0.4144232642     2     4     4     2
 0.0120529404     2     4     4     3
 0.0120529404     2     4     5     2
 -0.0029631898     2     4     5     3
 -0.0101712289     2     4     6     1
 -0.1123683538     2     5     1     6
 0.1317115160     2     5     3     4
 0.0120529404     2     5     4     2
 0.1287483262     2     5     4     3
 -0.2886381278     2     5     5     2
 -0.0120529404     2     5     5     3
 -0.1071133296     2     5     6     1
 0.0106702335     2     6     1     4
 0.1123683538     2     6     1     5
 0.0004990046     2     6     4     1
 0.0052550242     2     6     5     1
 -0.4182633441     2     6     6     2
 -0.4315688281     3     1     1     3
 -0.0052550242     3     1     4     6
 0.0004990046     3     1     5     6
 0.1071133296     3     1     6     4
 -0.0101712289     3     1     6     5
 -0.4205294939     3     2     2     3
 -0.0120529404     3     2     4     4
 0.0029631898     3     2     4     5
 -0.1287483262     3     2     5     4
 0.0120529404     3     2     5     5
 0.4315688281     3     3     1     1
 0.4205294939     3     3     2     2
 0.2886381278     3     3     4     4
 0.0120529404     3     3     4     5
 0.0120529404     3     3     5     4
 0.4144232642     3     3     5     5
 0.4182633441     3     3     6     6
 -0.1123683538     3     4     1     6
 0.1317115160     3     4     2     5
 0.0120529404     3     4     4     2
 -0.2886381278     3     4     4     3
 0.1287483262     3     4     5     2
 -0.0120529404     3     4     5     3
 -0.1071133296     3     4     6     1
 0.0106702335     3     5     1     6
 -0.1317115160     3     5     2     4
 -0.0029631898     3     5     4     2
 -0.0120529404     3     5     4     3
 -0.0120529404     3     5     5     2
 -0.4144232642     3     5     5     3
 0.0101712289     3     5     6     1
 0.1123683538     3     6     1     4
 -0.0106702335     3     6     1     5
 0.0052550242     3     6     4     1
 -0.0004990046     3     6     5     1
 -0.4182633441     3     6     6     3
 -0.4294723530     4     1     1     4
 0.0004990046     4     1     2     6
 0.0052550242     4     1     3     6
 0.0106702335     4     1     6     2
 0.1123683538     4     1     6     3
 -0.0101712289     4     2     1     6
 -0.4144232642     4     2     2     4
 0.0120529404     4     2     2     5
 0.0120529404     4     2     3     4
 -0.0029631898     4     2     3     5
 -0.1317115160     4     2     5     3
 -0.0106702335     4     2     6     1
 -0.1071133296     4     3     1     6
 0.0120529404     4     3     2     4
 0.1287483262     4     3     2     5
 -0.2886381278     4     3     3     4
 -0.0120529404     4     3     3     5
 0.1317115160     4     3     5     2
 -0.1123683538     4     3     6     1
 0.4294723530     4     4     1     1
 0.4144232642     4     4     2     2
 -0.0120529404     4     4     2     3
 -0.0120529404     4     4     3     2
 0.2886381278     4     4     3     3
 0.4130988449     4     4     5     5
 0.4108113920     4     4     6     6
 -0.0120529404     4     5     2     2
 -0.1287483262     4     5     2     3
 0.0029631898     4     5     3     2
 0.0120529404     4     5     3     3
 -0.4130988449     4     5     5     4
 0.0101712289     4     6     1     2
 0.1071133296     4     6     1     3
 -0.0004990046     4     6     2     1
 -0.0052550242     4     6     3     1
 -0.4108113920     4     6     6     4
 -0.4294723530     5     1     1     5
 0.0052550242     5     1     2     6
 -0.0004990046     5     1     3     6
 0.1123683538     5     1     6     2
 -0.0106702335     5     1     6     3
 -0.1071133296     5     2     1     6
 0.0120529404     5     2     2     4
 -0.2886381278     5     2     2     5
 0.1287483262     5     2     3     4
 -0.0120529404     5     2     3     5
 0.1317115160     5     2     4     3
 -0.1123683538     5     2     6     1
 0.0101712289     5     3     1     6
 -0.0029631898     5     3     2     4
 -0.0120529404     5     3     2     5
 -0.0120529404     5     3     3     4
 -0.4144232642     5     3     3     5
 -0.1317115160     5     3     4     2
 0.0106702335     5     3     6     1
 -0.0120529404     5     4     2     2
 0.0029631898     5     4     2     3
 -0.1287483262     5     4     3     2
 0.0120529404     5     4     3     3
 -0.4130988449     5     4     4     5
 0.4294723530     5     5     1     1
 0.2886381278     5     5     2     2
 0.0120529404     5     5     2     3
 0.0120529404     5     5     3     2
 0.4144232642     5     5     3     3
 0.4130988449     5     5     4     4
 0.4108113920     5     5     6     6
 0.1071133296     5     6     1     2
 -0.0101712289     5     6     1     3
 -0.0052550242     5     6     2     1
 0.0004990046     5     6     3     1
 -0.4108113920     5     6     6     5
 -0.3501998901     6     1     1     6
 -0.0101712289     6     1     2     4
 -0.1071133296     6     1     2     5
 -0.1071133296     6     1     3     4
 0.0101712289     6     1     3     5
 -0.0106702335     6     1     4     2
 -0.1123683538     6     1     4     3
 -0.1123683538     6     1     5     2
 0.0106702335     6     1     5     3
 0.0004990046     6     2     1     4
 0.0052550242     6     2     1     5
 -0.4182633441     6     2     2     6
 0.0106702335     6     2     4     1
 0.1123683538     6     2     5     1
 0.0052550242     6     3     1     4
 -0.0004990046     6     3     1     5
 -0.4182633441     6     3     3     6
 0.1123683538     6     3     4     1
 -0.0106702335     6     3     5     1
 -0.0004990046     6     4     1     2
 -0.0052550242     6     4     1     3
 0.0101712289     6     4     2     1
 0.1071133296     6     4     3     1
 -0.4108113920     6     4     4     6
 -0.0052550242     6     5     1     2
 0.0004990046     6     5     1     3
 0.1071133296     6     5     2     1
 -0.0101712289     6     5     3     1
 -0.4108113920     6     5     5     6
 0.3501998901     6     6     1     1
 0.4182633441     6     6     2     2
 0.4182633441     6     6     3     3
 0.4108113920     6     6     4     4
 0.4108113920     6     6     5     5
0.0 0 0 0 0
 0.5168215256     1     1     1     1
 0.4514816818     1     1     2     2
 0.4514816818     1     1     3     3
 0.4519814953     1     1     4     4
 0.4519814953     1     1     5     5
 0.4747166022     1     1     6     6
 0.0199128537     1     2     1     2
 0.0199128537     1     2     2     1
 -0.0010391421     1     2     4     6
 -0.0109432180     1     2     5     6
 -0.0010391421     1     2     6     4
 -0.0109432180     1     2     6     5
 0.0199128537     1     3     1     3
 0.0199128537     1     3     3     1
 -0.0109432180     1     3     4     6
 0.0010391421     1     3     5     6
 -0.0109432180     1     3     6     4
 0.0010391421     1     3     6     5
 0.0225091423     1     4     1     4
 -0.0005401375     1     4     2     6
 -0.0056881938     1     4     3     6
 0.0225091423     1     4     4     1
 -0.0005401375     1     4     6     2
 -0.0056881938     1     4     6     3
 0.0225091423     1     5     1     5
 -0.0056881938     1     5     2     6
 0.0005401375     1     5     3     6
 0.0225091423     1     5     5     1
 -0.0056881938     1     5     6     2
 0.0005401375     1     5     6     3
 0.1245167121     1     6     1     6
 -0.0112103710     1     6     2     4
 -0.1180565476     1     6     2     5
 -0.1180565476     1     6     3     4
 0.0112103710     1     6     3     5
 -0.0112103710     1     6     4     2
 -0.1180565476     1     6     4     3
 -0.1180565476     1     6     5     2
 0.0112103710     1     6     5     3
 0.1245167121     1     6     6     1
 0.0199128537     2     1     1     2
 0.0199128537     2     1     2     1
 -0.0010391421     2     1     4     6
 -0.0109432180     2     1     5     6
 -0.0010391421     2     1     6     4
 -0.0109432180     2     1     6     5
 0.4514816818     2     2     1     1
 0.4724309033     2     2     2     2
 0.4378299637     2     2     3     3
 0.4306503729     2     2     4     4
 0.0031252665     2     2     4     5
 0.0031252665     2     2     5     4
 0.4632658232     2     2     5     5
 0.4397229729     2     2     6     6
 0.0173004698     2     3     2     3
 0.0173004698     2     3     3     2
 0.0031252665     2     3     4     4
 0.0163077251     2     3     4     5
 0.0163077251     2     3     5     4
 -0.0031252665     2     3     5     5
 -0.0112103710     2     4     1     6
 0.0162271087     2     4     2     4
 0.0151782069     2     4     2     5
 0.0151782069     2     4     3     4
 0.0133445353     2     4     3     5
 0.0162271087     2     4     4     2
 0.0151782069     2     4     4     3
 0.0151782069     2     4     5     2
 0.0133445353     2     4     5     3
 -0.0112103710     2     4     6     1
 -0.1180565476     2     5     1     6
 0.0151782069     2     5     2     4
 0.1746276954     2     5     2     5
 0.1450560513     2     5     3     4
 -0.0151782069     2     5     3     5
 0.0151782069     2     5     4     2
 0.1450560513     2     5     4     3
 0.1746276954     2     5     5     2
 -0.0151782069     2     5     5     3
 -0.1180565476     2     5     6     1
 -0.0005401375     2     6     1     4
 -0.0056881938     2     6     1     5
 0.0214596288     2     6     2     6
 -0.0005401375     2     6     4     1
 -0.0056881938     2     6     5     1
 0.0214596288     2     6     6     2
 0.0199128537     3     1     1     3
 0.0199128537     3     1     3     1
 -0.0109432180     3     1     4     6
 0.0010391421     3     1     5     6
 -0.0109432180     3     1     6     4
 0.0010391421     3     1     6     5
 0.0173004698     3     2     2     3
 0.0173004698     3     2     3     2
 0.0031252665     3     2     4     4
 0.0163077251     3     2     4     5
 0.0163077251     3     2     5     4
 -0.0031252665     3     2     5     5
 0.4514816818     3     3     1     1
 0.4378299637     3     3     2     2
 0.4724309033     3     3     3     3
 0.4632658232     3     3     4     4
 -0.0031252665     3     3     4     5
 -0.0031252665     3     3     5     4
 0.4306503729     3     3     5     5
 0.4397229729     3     3     6     6
 -0.1180565476     3     4     1     6
 0.0151782069     3     4     2     4
 0.1450560513     3     4     2     5
 0.1746276954     3     4     3     4
 -0.0151782069     3     4     3     5
 0.0151782069     3     4     4     2
 0.1746276954     3     4     4     3
 0.1450560513     3     4     5     2
 -0.0151782069     3     4     5     3
 -0.1180565476     3     4     6     1
 0.0112103710     3     5     1     6
 0.0133445353     3     5     2     4
 -0.0151782069     3     5     2     5
 -0.0151782069     3     5     3     4
 0.0162271087     3     5     3     5
 0.0133445353     3     5     4     2
 -0.0151782069     3     5     4     3
 -0.0151782069     3     5     5     2
 0.0162271087     3     5     5     3
 0.0112103710     3     5     6     1
 -0.0056881938     3     6     1     4
 0.0005401375     3     6     1     5
 0.0214596288     3     6     3     6
 -0.0056881938     3     6     4     1
 0.0005401375     3     6     5     1
 0.0214596288     3     6     6     3
 0.0225091423     4     1     1     4
 -0.0005401375     4     1     2     6
 -0.0056881938     4     1     3     6
 0.0225091423     4     1     4     1
 -0.0005401375     4     1     6     2
 -0.0056881938     4     1     6     3
 -0.0112103710     4     2     1     6
 0.0162271087     4     2     2     4
 0.0151782069     4     2     2     5
 0.0151782069     4     2     3     4
 0.0133445353     4     2     3     5
 0.0162271087     4     2     4     2
 0.0151782069     4     2     4     3
 0.0151782069     4     2     5     2
 0.0133445353     4     2     5     3
 -0.0112103710     4     2     6     1
 -0.1180565476     4     3     1     6
 0.0151782069     4     3     2     4
 0.1450560513     4     3     2     5
 0.1746276954     4     3     3     4
 -0.0151782069     4     3     3     5
 0.0151782069     4     3     4     2
 0.1746276954     4     3     4     3
 0.1450560513     4     3     5     2
 -0.0151782069     4     3     5     3
 -0.1180565476     4     3     6     1
 0.4519814953     4     4     1     1
 0.4306503729     4     4     2     2
 0.0031252665     4     4     2     3
 0.0031252665     4     4     3     2
 0.4632658232     4     4     3     3
 0.4661032319     4     4     4     4
 0.4307669739     4     4     5     5
 0.4333072153     4     4     6     6
 0.0031252665     4     5     2     2
 0.0163077251     4     5     2     3
 0.0163077251     4     5     3     2
 -0.0031252665     4     5     3     3
 0.0176681290     4     5     4     5
 0.0176681290     4     5     5     4
 -0.0010391421     4     6     1     2
 -0.0109432180     4     6     1     3
 -0.0010391421     4     6     2     1
 -0.0109432180     4     6     3     1
 0.0224958233     4     6     4     6
 0.0224958233     4     6     6     4
 0.0225091423     5     1     1     5
 -0.0056881938     5     1     2     6
 0.0005401375     5     1     3     6
 0.0225091423     5     1     5     1
 -0.0056881938     5     1     6     2
 0.0005401375     5     1     6     3
 -0.1180565476     5     2     1     6
 0.0151782069     5     2     2     4
 0.1746276954     5     2     2     5
 0.1450560513     5     2     3     4
 -0.0151782069     5     2     3     5
 0.0151782069     5     2     4     2
 0.1450560513     5     2     4     3
 0.1746276954     5     2     5     2
 -0.0151782069     5     2     5     3
 -0.1180565476     5     2     6     1
 0.0112103710     5     3     1     6
 0.0133445353     5     3     2     4
 -0.0151782069     5     3     2     5
 -0.0151782069     5     3     3     4
 0.0162271087     5     3     3     5
 0.0133445353     5     3     4     2
 -0.0151782069     5     3     4     3
 -0.0151782069     5     3     5     2
 0.0162271087     5     3     5     3
 0.0112103710     5     3     6     1
 0.0031252665     5     4     2     2
 0.0163077251     5     4     2     3
 0.0163077251     5     4     3     2
 -0.0031252665     5     4     3     3
 0.0176681290     5     4     4     5
 0.0176681290     5     4     5     4
 0.4519814953     5     5     1     1
 0.4632658232     5     5     2     2
 -0.0031252665     5     5     2     3
 -0.0031252665     5     5     3     2
 0.4306503729     5     5     3     3
 0.4307669739     5     5     4     4
 0.4661032319     5     5     5     5
 0.4333072153     5     5     6     6
 -0.0109432180     5     6     1     2
 0.0010391421     5     6     1     3
 -0.0109432180     5     6     2     1
 0.0010391421     5     6     3     1
 0.0224958233     5     6     5     6
 0.0224958233     5     6     6     5
 0.1245167121     6     1     1     6
 -0.0112103710     6     1     2     4
 -0.1180565476     6     1     2     5
 -0.1180565476     6     1     3     4
 0.0112103710     6     1     3     5
 -0.0112103710     6     1     4     2
 -0.1180565476     6     1     4     3
 -0.1180565476     6     1     5     2
 0.0112103710     6     1     5     3
 0.1245167121     6     1     6     1
 -0.0005401375     6     2     1     4
 -0.0056881938     6     2     1     5
 0.0214596288     6     2     2     6
 -0.0005401375     6     2     4     1
 -0.0056881938     6     2     5     1
 0.0214596288     6     2     6     2
 -0.0056881938     6     3     1     4
 0.0005401375     6     3     1     5
 0.0214596288     6     3     3     6
 -0.0056881938     6     3     4     1
 0.0005401375     6     3     5     1
 0.0214596288     6     3     6     3
 -0.0010391421     6     4     1     2
 -0.0109432180     6     4     1     3
 -0.0010391421     6     4     2     1
 -0.0109432180     6     4     3     1
 0.0224958233     6     4     4     6
 0.0224958233     6     4     6     4
 -0.0109432180     6     5     1     2
 0.0010391421     6     5     1     3
 -0.0109432180     6     5     2     1
 0.0010391421     6     5     3     1
 0.0224958233     6     5     5     6
 0.0224958233     6     5     6     5
 0.4747166022     6     6     1     1
 0.4397229729     6     6     2     2
 0.4397229729     6     6     3     3
 0.4333072153     6     6     4     4
 0.4333072153     6     6     5     5
 0.4720466664     6     6     6     6
0.0 0 0 0 0
 -2.8353361022     1     1     0     0
 -2.6730603542     2     2     0     0
 -2.6730603542     3     3     0     0
 -2.5082964887     4     4     0     0
 -2.5082964887     5     5     0     0
 -2.3562927292     6     6     0     0
0.0 0 0 0 0
 -2.8353361022     1     1     0     0
 -2.6730603542     2     2     0     0
 -2.6730603542     3     3     0     0
 -2.5082964887     4     4     0     0
 -2.5082964887     5     5     0     0
 -2.3562927292     6     6     0     0
-98.9378436594 0 0 0 0
