&FCI NORB= 19,NELEC= 14,MS2=0,
 ORBSYM=1,1,1,1,1,1,1,1,1,1,1,1,1,1,1,1,1,1,1
 ISYM=1,
&END
 0.5376395330     1     1     2     2
 0.0105097556     1     1     2     4
 0.0022189122     1     1     2    10
 0.0201732684     1     1     2    17
 0.8606384359     1     1     3     3
 0.1154305544     1     1     3     7
 0.0992407204     1     1     3    11
 0.1087956195     1     1     3    14
 0.0105097556     1     1     4     2
 0.6464693527     1     1     4     4
 0.1321768057     1     1     4    10
 0.1160895084     1     1     4    17
 0.7090884890     1     1     5     5
 -0.1738338341     1     1     5    12
 -0.1401322259     1     1     5    13
 0.7090884890     1     1     6     6
 -0.1401322259     1     1     6    12
 0.1738338341     1     1     6    13
 0.1154305544     1     1     7     3
 0.6896574078     1     1     7     7
 0.1465493323     1     1     7    11
 -0.1527958672     1     1     7    14
 0.5941885549     1     1     8     8
 -0.1451879543     1     1     8    15
 0.2095584184     1     1     8    16
 0.5941885549     1     1     9     9
 0.2095584184     1     1     9    15
 0.1451879543     1     1     9    16
 0.0022189122     1     1    10     2
 0.1321768057     1     1    10     4
 0.3788526098     1     1    10    10
 -0.0125952674     1     1    10    17
 0.0992407204     1     1    11     3
 0.1465493323     1     1    11     7
 0.4706726796     1     1    11    11
 0.0105210185     1     1    11    14
 -0.1738338341     1     1    12     5
 -0.1401322259     1     1    12     6
 0.5641800598     1     1    12    12
 -0.1401322259     1     1    13     5
 0.1738338341     1     1    13     6
 0.5641800598     1     1    13    13
 0.1087956195     1     1    14     3
 -0.1527958672     1     1    14     7
 0.0105210185     1     1    14    11
 0.5666176923     1     1    14    14
 -0.1451879543     1     1    15     8
 0.2095584184     1     1    15     9
 0.6374867087     1     1    15    15
 0.2095584184     1     1    16     8
 0.1451879543     1     1    16     9
 0.6374867087     1     1    16    16
 0.0201732684     1     1    17     2
 0.1160895084     1     1    17     4
 -0.0125952674     1     1    17    10
 0.6886153764     1     1    17    17
 0.6178524039     1     1    18    18
 0.6178524039     1     1    19    19
 -0.5376395330     1     2     2     1
 -0.0150208427     1     2     2     3
 -0.0213373550     1     2     2     7
 -0.0131794199     1     2     2    11
 0.0091257847     1     2     2    14
 -0.1190004573     1     2     3     4
 -0.0754656603     1     2     3    10
 0.0968146862     1     2     3    17
 -0.0105097556     1     2     4     1
 -0.1196041342     1     2     4     3
 0.2336616553     1     2     4     7
 0.0214117725     1     2     4    11
 -0.1522309916     1     2     4    14
 -0.1724040825     1     2     5     8
 -0.0977861977     1     2     5     9
 0.0164435952     1     2     5    15
 -0.1823151362     1     2     5    16
 0.0977861977     1     2     6     8
 -0.1724040825     1     2     6     9
 -0.1823151362     1     2     6    15
 -0.0164435952     1     2     6    16
 0.2345053704     1     2     7     4
 0.0305335196     1     2     7    10
 0.1903890803     1     2     7    17
 -0.1718230080     1     2     8     5
 0.0974566170     1     2     8     6
 0.0367893701     1     2     8    12
 0.0930844673     1     2     8    13
 -0.0974566170     1     2     9     5
 -0.1718230080     1     2     9     6
 0.0930844673     1     2     9    12
 -0.0367893701     1     2     9    13
 -0.0022189122     1     2    10     1
 -0.0755397309     1     2    10     3
 0.0303532766     1     2    10     7
 0.0619619996     1     2    10    11
 -0.0968967125     1     2    10    14
 0.0219508141     1     2    11     4
 0.0620753531     1     2    11    10
 0.0755347888     1     2    11    17
 0.0370163326     1     2    12     8
 0.0936587279     1     2    12     9
 0.1121889327     1     2    12    15
 0.1680962891     1     2    12    16
 0.0936587279     1     2    13     8
 -0.0370163326     1     2    13     9
 -0.1680962891     1     2    13    15
 0.1121889327     1     2    13    16
 -0.1526120663     1     2    14     4
 -0.0969896236     1     2    14    10
 -0.1608384254     1     2    14    17
 0.0163616622     1     2    15     5
 -0.1814067197     1     2    15     6
 0.1117148786     1     2    15    12
 -0.1673859987     1     2    15    13
 -0.1814067197     1     2    16     5
 -0.0163616622     1     2    16     6
 0.1673859987     1     2    16    12
 0.1117148786     1     2    16    13
 -0.0201732684     1     2    17     1
 0.0958135735     1     2    17     3
 0.1888924493     1     2    17     7
 0.0745829837     1     2    17    11
 -0.1602446728     1     2    17    14
 0.0150208427     1     3     2     2
 0.0005900728     1     3     2     4
 0.0001043340     1     3     2    10
 0.0010349847     1     3     2    17
 -0.8606384359     1     3     3     1
 -0.0260553389     1     3     3     7
 -0.0160135767     1     3     3    11
 0.0192902183     1     3     3    14
 0.1196041342     1     3     4     2
 -0.0111776889     1     3     4     4
 -0.0022823794     1     3     4    10
 -0.0147823454     1     3     4    17
 -0.0183183764     1     3     5     5
 0.0162831810     1     3     5    12
 0.0131263193     1     3     5    13
 -0.0183183764     1     3     6     6
 0.0131263193     1     3     6    12
 -0.0162831810     1     3     6    13
 -0.1154305544     1     3     7     1
 -0.0256816022     1     3     7     7
 -0.0104267504     1     3     7    11
 0.0201980620     1     3     7    14
 -0.0124804288     1     3     8     8
 0.0098152957     1     3     8    15
 -0.0141670007     1     3     8    16
 -0.0124804288     1     3     9     9
 -0.0141670007     1     3     9    15
 -0.0098152957     1     3     9    16
 0.0755397309     1     3    10     2
 -0.0012388944     1     3    10     4
 -0.0016159383     1     3    10    10
 -0.0036957253     1     3    10    17
 -0.0992407204     1     3    11     1
 -0.0109144249     1     3    11     7
 -0.0055359259     1     3    11    11
 0.0122079854     1     3    11    14
 0.0099134154     1     3    12     5
 0.0079914763     1     3    12     6
 -0.0128502964     1     3    12    12
 0.0079914763     1     3    13     5
 -0.0099134154     1     3    13     6
 -0.0128502964     1     3    13    13
 -0.1087956195     1     3    14     1
 0.0073101250     1     3    14     7
 0.0040646371     1     3    14    11
 -0.0058376427     1     3    14    14
 0.0079828631     1     3    15     8
 -0.0115221415     1     3    15     9
 -0.0202062631     1     3    15    15
 -0.0115221415     1     3    16     8
 -0.0079828631     1     3    16     9
 -0.0202062631     1     3    16    16
 -0.0958135735     1     3    17     2
 -0.0164095527     1     3    17     4
 -0.0063663743     1     3    17    10
 -0.0179151996     1     3    17    17
 0.0018744469     1     3    18    18
 0.0018744469     1     3    19    19
 -0.0105097556     1     4     2     1
 -0.0005900728     1     4     2     3
 -0.0008420470     1     4     2     7
 -0.0005421648     1     4     2    11
 0.0003624654     1     4     2    14
 0.1190004573     1     4     3     2
 -0.0011559193     1     4     3    10
 0.0019584234     1     4     3    17
 -0.6464693527     1     4     4     1
 0.0111776889     1     4     4     3
 0.0015562836     1     4     4     7
 0.0064330740     1     4     4    11
 0.0005888465     1     4     4    14
 -0.0088100157     1     4     5     8
 -0.0049969694     1     4     5     9
 0.0015459083     1     4     5    15
 -0.0171399557     1     4     5    16
 0.0049969694     1     4     6     8
 -0.0088100157     1     4     6     9
 -0.0171399557     1     4     6    15
 -0.0015459083     1     4     6    16
 -0.2345053704     1     4     7     2
 -0.0015050165     1     4     7    10
 0.0207670926     1     4     7    17
 -0.0120593739     1     4     8     5
 0.0068399791     1     4     8     6
 0.0064043262     1     4     8    12
 0.0162042266     1     4     8    13
 -0.0068399791     1     4     9     5
 -0.0120593739     1     4     9     6
 0.0162042266     1     4     9    12
 -0.0064043262     1     4     9    13
 -0.1321768057     1     4    10     1
 0.0012388944     1     4    10     3
 -0.0010824939     1     4    10     7
 -0.0023039228     1     4    10    11
 0.0025663586     1     4    10    14
 -0.0219508141     1     4    11     2
 -0.0036004089     1     4    11    10
 0.0050033057     1     4    11    17
 0.0033575598     1     4    12     8
 0.0084952983     1     4    12     9
 0.0061175592     1     4    12    15
 0.0091661359     1     4    12    16
 0.0084952983     1     4    13     8
 -0.0033575598     1     4    13     9
 -0.0091661359     1     4    13    15
 0.0061175592     1     4    13    16
 0.1526120663     1     4    14     2
 0.0025349519     1     4    14    10
 -0.0081250815     1     4    14    17
 0.0012275897     1     4    15     5
 -0.0136106599     1     4    15     6
 0.0078049706     1     4    15    12
 -0.0116944387     1     4    15    13
 -0.0136106599     1     4    16     5
 -0.0012275897     1     4    16     6
 0.0116944387     1     4    16    12
 0.0078049706     1     4    16    13
 -0.1160895084     1     4    17     1
 0.0164095527     1     4    17     3
 0.0104111316     1     4    17     7
 0.0106900370     1     4    17    11
 0.0005898453     1     4    17    14
 -0.0005788794     1     5     2     8
 -0.0003283358     1     5     2     9
 0.0000822924     1     5     2    15
 -0.0009124014     1     5     2    16
 0.0062541094     1     5     3    12
 0.0050416093     1     5     3    13
 0.0034306099     1     5     4     8
 0.0019458141     1     5     4     9
 0.0002963226     1     5     4    15
 -0.0032854185     1     5     4    16
 -0.7090884890     1     5     5     1
 0.0183183764     1     5     5     3
 -0.0168274442     1     5     5     7
 -0.0079114612     1     5     5    11
 0.0136063585     1     5     5    14
 0.0041748957     1     5     5    18
 -0.0091591328     1     5     5    19
 0.0091591328     1     5     6    18
 0.0041748957     1     5     6    19
 -0.0041205340     1     5     7    12
 -0.0033216755     1     5     7    13
 0.1718230080     1     5     8     2
 0.0120593739     1     5     8     4
 0.0068677106     1     5     8    10
 -0.0084961819     1     5     8    17
 0.0974566170     1     5     9     2
 0.0068399791     1     5     9     4
 0.0038953098     1     5     9    10
 -0.0048189654     1     5     9    17
 0.0009535953     1     5    10     8
 0.0005408716     1     5    10     9
 -0.0000050869     1     5    10    15
 0.0000564006     1     5    10    16
 -0.0038281079     1     5    11    12
 -0.0030859428     1     5    11    13
 0.1738338341     1     5    12     1
 -0.0099134154     1     5    12     3
 0.0053208901     1     5    12     7
 0.0002245027     1     5    12    11
 -0.0132701863     1     5    12    14
 -0.0025036821     1     5    12    18
 0.0012549761     1     5    12    19
 0.1401322259     1     5    13     1
 -0.0079914763     1     5    13     3
 0.0042893156     1     5    13     7
 0.0001809778     1     5    13    11
 -0.0106974614     1     5    13    14
 0.0012549761     1     5    13    18
 0.0025036821     1     5    13    19
 -0.0038238555     1     5    14    12
 -0.0030825149     1     5    14    13
 -0.0163616622     1     5    15     2
 -0.0012275897     1     5    15     4
 -0.0009197373     1     5    15    10
 0.0001219669     1     5    15    17
 0.1814067197     1     5    16     2
 0.0136106599     1     5    16     4
 0.0101974072     1     5    16    10
 -0.0013522837     1     5    16    17
 -0.0016195017     1     5    17     8
 -0.0009185682     1     5    17     9
 -0.0003727468     1     5    17    15
 0.0041327563     1     5    17    16
 0.0069435728     1     5    18    12
 -0.0034804808     1     5    18    13
 -0.0034804808     1     5    19    12
 -0.0069435728     1     5    19    13
 0.0003283358     1     6     2     8
 -0.0005788794     1     6     2     9
 -0.0009124014     1     6     2    15
 -0.0000822924     1     6     2    16
 0.0050416093     1     6     3    12
 -0.0062541094     1     6     3    13
 -0.0019458141     1     6     4     8
 0.0034306099     1     6     4     9
 -0.0032854185     1     6     4    15
 -0.0002963226     1     6     4    16
 0.0091591328     1     6     5    18
 0.0041748957     1     6     5    19
 -0.7090884890     1     6     6     1
 0.0183183764     1     6     6     3
 -0.0168274442     1     6     6     7
 -0.0079114612     1     6     6    11
 0.0136063585     1     6     6    14
 -0.0041748957     1     6     6    18
 0.0091591328     1     6     6    19
 -0.0033216755     1     6     7    12
 0.0041205340     1     6     7    13
 -0.0974566170     1     6     8     2
 -0.0068399791     1     6     8     4
 -0.0038953098     1     6     8    10
 0.0048189654     1     6     8    17
 0.1718230080     1     6     9     2
 0.0120593739     1     6     9     4
 0.0068677106     1     6     9    10
 -0.0084961819     1     6     9    17
 -0.0005408716     1     6    10     8
 0.0009535953     1     6    10     9
 0.0000564006     1     6    10    15
 0.0000050869     1     6    10    16
 -0.0030859428     1     6    11    12
 0.0038281079     1     6    11    13
 0.1401322259     1     6    12     1
 -0.0079914763     1     6    12     3
 0.0042893156     1     6    12     7
 0.0001809778     1     6    12    11
 -0.0106974614     1     6    12    14
 -0.0012549761     1     6    12    18
 -0.0025036821     1     6    12    19
 -0.1738338341     1     6    13     1
 0.0099134154     1     6    13     3
 -0.0053208901     1     6    13     7
 -0.0002245027     1     6    13    11
 0.0132701863     1     6    13    14
 -0.0025036821     1     6    13    18
 0.0012549761     1     6    13    19
 -0.0030825149     1     6    14    12
 0.0038238555     1     6    14    13
 0.1814067197     1     6    15     2
 0.0136106599     1     6    15     4
 0.0101974072     1     6    15    10
 -0.0013522837     1     6    15    17
 0.0163616622     1     6    16     2
 0.0012275897     1     6    16     4
 0.0009197373     1     6    16    10
 -0.0001219669     1     6    16    17
 0.0009185682     1     6    17     8
 -0.0016195017     1     6    17     9
 0.0041327563     1     6    17    15
 0.0003727468     1     6    17    16
 0.0034804808     1     6    18    12
 0.0069435728     1     6    18    13
 0.0069435728     1     6    19    12
 -0.0034804808     1     6    19    13
 0.0213373550     1     7     2     2
 0.0008420470     1     7     2     4
 0.0001841610     1     7     2    10
 0.0015290088     1     7     2    17
 -0.1154305544     1     7     3     1
 0.0260553389     1     7     3     3
 0.0004070668     1     7     3    11
 0.0126542054     1     7     3    14
 -0.2336616553     1     7     4     2
 -0.0015562836     1     7     4     4
 -0.0003900616     1     7     4    10
 0.0100628896     1     7     4    17
 0.0168274442     1     7     5     5
 -0.0094241948     1     7     5    12
 -0.0075971021     1     7     5    13
 0.0168274442     1     7     6     6
 -0.0075971021     1     7     6    12
 0.0094241948     1     7     6    13
 -0.6896574078     1     7     7     1
 0.0256816022     1     7     7     3
 0.0091116733     1     7     7    11
 0.0119291136     1     7     7    14
 0.0083117612     1     7     8     8
 -0.0066675274     1     7     8    15
 0.0096236393     1     7     8    16
 0.0083117612     1     7     9     9
 0.0096236393     1     7     9    15
 0.0066675274     1     7     9    16
 -0.0303532766     1     7    10     2
 0.0010824939     1     7    10     4
 -0.0013149940     1     7    10    10
 -0.0018163145     1     7    10    17
 -0.1465493323     1     7    11     1
 0.0109144249     1     7    11     3
 0.0031226104     1     7    11    11
 0.0112481703     1     7    11    14
 -0.0053208901     1     7    12     5
 -0.0042893156     1     7    12     6
 0.0077854759     1     7    12    12
 -0.0042893156     1     7    13     5
 0.0053208901     1     7    13     6
 0.0077854759     1     7    13    13
 0.1527958672     1     7    14     1
 -0.0073101250     1     7    14     3
 -0.0010615061     1     7    14    11
 -0.0014896848     1     7    14    14
 -0.0043678621     1     7    15     8
 0.0063043954     1     7    15     9
 0.0106537995     1     7    15    15
 0.0063043954     1     7    16     8
 0.0043678621     1     7    16     9
 0.0106537995     1     7    16    16
 -0.1888924493     1     7    17     2
 -0.0104111316     1     7    17     4
 -0.0083117642     1     7    17    10
 0.0113664086     1     7    17    17
 0.0086199680     1     7    18    18
 0.0086199680     1     7    19    19
 0.0005788794     1     8     2     5
 -0.0003283358     1     8     2     6
 -0.0002320859     1     8     2    12
 -0.0005872236     1     8     2    13
 0.0017186435     1     8     3    15
 -0.0024806205     1     8     3    16
 -0.0034306099     1     8     4     5
 0.0019458141     1     8     4     6
 0.0030497691     1     8     4    12
 0.0077165261     1     8     4    13
 0.1724040825     1     8     5     2
 0.0088100157     1     8     5     4
 0.0058240851     1     8     5    10
 -0.0071096741     1     8     5    17
 -0.0977861977     1     8     6     2
 -0.0049969694     1     8     6     4
 -0.0033033738     1     8     6    10
 0.0040325495     1     8     6    17
 -0.0022373211     1     8     7    15
 0.0032292588     1     8     7    16
 -0.5941885549     1     8     8     1
 0.0124804288     1     8     8     3
 -0.0083117612     1     8     8     7
 -0.0007964822     1     8     8    11
 0.0087652884     1     8     8    14
 -0.0026608344     1     8     8    18
 -0.0038543971     1     8     8    19
 0.0038543971     1     8     9    18
 -0.0026608344     1     8     9    19
 -0.0009535953     1     8    10     5
 0.0005408716     1     8    10     6
 0.0008931294     1     8    10    12
 0.0022597960     1     8    10    13
 -0.0001703605     1     8    11    15
 0.0002458914     1     8    11    16
 -0.0370163326     1     8    12     2
 -0.0033575598     1     8    12     4
 -0.0022560303     1     8    12    10
 -0.0003080495     1     8    12    17
 -0.0936587279     1     8    13     2
 -0.0084952983     1     8    13     4
 -0.0057082081     1     8    13    10
 -0.0007794270     1     8    13    17
 -0.0005836143     1     8    14    15
 0.0008423653     1     8    14    16
 0.1451879543     1     8    15     1
 -0.0079828631     1     8    15     3
 0.0043678621     1     8    15     7
 0.0005997816     1     8    15    11
 -0.0078103036     1     8    15    14
 0.0034861320     1     8    15    18
 0.0000058736     1     8    15    19
 -0.2095584184     1     8    16     1
 0.0115221415     1     8    16     3
 -0.0063043954     1     8    16     7
 -0.0008657005     1     8    16    11
 0.0112730761     1     8    16    14
 0.0000058736     1     8    16    18
 -0.0034861320     1     8    16    19
 0.0016195017     1     8    17     5
 -0.0009185682     1     8    17     6
 -0.0014521067     1     8    17    12
 -0.0036741204     1     8    17    13
 -0.0037068534     1     8    18    15
 -0.0000062455     1     8    18    16
 -0.0000062455     1     8    19    15
 0.0037068534     1     8    19    16
 0.0003283358     1     9     2     5
 0.0005788794     1     9     2     6
 -0.0005872236     1     9     2    12
 0.0002320859     1     9     2    13
 -0.0024806205     1     9     3    15
 -0.0017186435     1     9     3    16
 -0.0019458141     1     9     4     5
 -0.0034306099     1     9     4     6
 0.0077165261     1     9     4    12
 -0.0030497691     1     9     4    13
 0.0977861977     1     9     5     2
 0.0049969694     1     9     5     4
 0.0033033738     1     9     5    10
 -0.0040325495     1     9     5    17
 0.1724040825     1     9     6     2
 0.0088100157     1     9     6     4
 0.0058240851     1     9     6    10
 -0.0071096741     1     9     6    17
 0.0032292588     1     9     7    15
 0.0022373211     1     9     7    16
 0.0038543971     1     9     8    18
 -0.0026608344     1     9     8    19
 -0.5941885549     1     9     9     1
 0.0124804288     1     9     9     3
 -0.0083117612     1     9     9     7
 -0.0007964822     1     9     9    11
 0.0087652884     1     9     9    14
 0.0026608344     1     9     9    18
 0.0038543971     1     9     9    19
 -0.0005408716     1     9    10     5
 -0.0009535953     1     9    10     6
 0.0022597960     1     9    10    12
 -0.0008931294     1     9    10    13
 0.0002458914     1     9    11    15
 0.0001703605     1     9    11    16
 -0.0936587279     1     9    12     2
 -0.0084952983     1     9    12     4
 -0.0057082081     1     9    12    10
 -0.0007794270     1     9    12    17
 0.0370163326     1     9    13     2
 0.0033575598     1     9    13     4
 0.0022560303     1     9    13    10
 0.0003080495     1     9    13    17
 0.0008423653     1     9    14    15
 0.0005836143     1     9    14    16
 -0.2095584184     1     9    15     1
 0.0115221415     1     9    15     3
 -0.0063043954     1     9    15     7
 -0.0008657005     1     9    15    11
 0.0112730761     1     9    15    14
 -0.0000058736     1     9    15    18
 0.0034861320     1     9    15    19
 -0.1451879543     1     9    16     1
 0.0079828631     1     9    16     3
 -0.0043678621     1     9    16     7
 -0.0005997816     1     9    16    11
 0.0078103036     1     9    16    14
 0.0034861320     1     9    16    18
 0.0000058736     1     9    16    19
 0.0009185682     1     9    17     5
 0.0016195017     1     9    17     6
 -0.0036741204     1     9    17    12
 0.0014521067     1     9    17    13
 0.0000062455     1     9    18    15
 -0.0037068534     1     9    18    16
 -0.0037068534     1     9    19    15
 -0.0000062455     1     9    19    16
 -0.0022189122     1    10     2     1
 -0.0001043340     1    10     2     3
 -0.0001841610     1    10     2     7
 -0.0001222225     1    10     2    11
 0.0001094709     1    10     2    14
 0.0754656603     1    10     3     2
 0.0011559193     1    10     3     4
 0.0027911151     1    10     3    17
 -0.1321768057     1    10     4     1
 0.0022823794     1    10     4     3
 0.0003900616     1    10     4     7
 0.0013085375     1    10     4    11
 0.0000926324     1    10     4    14
 -0.0058240851     1    10     5     8
 -0.0033033738     1    10     5     9
 0.0009079443     1    10     5    15
 -0.0100666541     1    10     5    16
 0.0033033738     1    10     6     8
 -0.0058240851     1    10     6     9
 -0.0100666541     1    10     6    15
 -0.0009079443     1    10     6    16
 -0.0305335196     1    10     7     2
 0.0015050165     1    10     7     4
 0.0067353555     1    10     7    17
 -0.0068677106     1    10     8     5
 0.0038953098     1    10     8     6
 0.0031480587     1    10     8    12
 0.0079652185     1    10     8    13
 -0.0038953098     1    10     9     5
 -0.0068677106     1    10     9     6
 0.0079652185     1    10     9    12
 -0.0031480587     1    10     9    13
 -0.3788526098     1    10    10     1
 0.0016159383     1    10    10     3
 0.0013149940     1    10    10     7
 0.0005804538     1    10    10    11
 -0.0003356612     1    10    10    14
 -0.0620753531     1    10    11     2
 0.0036004089     1    10    11     4
 0.0087886110     1    10    11    17
 0.0022560303     1    10    12     8
 0.0057082081     1    10    12     9
 0.0047293286     1    10    12    15
 0.0070861054     1    10    12    16
 0.0057082081     1    10    13     8
 -0.0022560303     1    10    13     9
 -0.0070861054     1    10    13    15
 0.0047293286     1    10    13    16
 0.0969896236     1    10    14     2
 -0.0025349519     1    10    14     4
 -0.0073443477     1    10    14    17
 0.0009197373     1    10    15     5
 -0.0101974072     1    10    15     6
 0.0057687324     1    10    15    12
 -0.0086434774     1    10    15    13
 -0.0101974072     1    10    16     5
 -0.0009197373     1    10    16     6
 0.0086434774     1    10    16    12
 0.0057687324     1    10    16    13
 0.0125952674     1    10    17     1
 0.0063663743     1    10    17     3
 0.0083117642     1    10    17     7
 0.0057794291     1    10    17    11
 -0.0034033412     1    10    17    14
 0.0131794199     1    11     2     2
 0.0005421648     1    11     2     4
 0.0001222225     1    11     2    10
 0.0009634304     1    11     2    17
 -0.0992407204     1    11     3     1
 0.0160135767     1    11     3     3
 -0.0004070668     1    11     3     7
 0.0082049960     1    11     3    14
 -0.0214117725     1    11     4     2
 -0.0064330740     1    11     4     4
 -0.0013085375     1    11     4    10
 -0.0056398502     1    11     4    17
 0.0079114612     1    11     5     5
 -0.0040213212     1    11     5    12
 -0.0032416973     1    11     5    13
 0.0079114612     1    11     6     6
 -0.0032416973     1    11     6    12
 0.0040213212     1    11     6    13
 -0.1465493323     1    11     7     1
 0.0104267504     1    11     7     3
 -0.0091116733     1    11     7     7
 0.0123482846     1    11     7    14
 0.0007964822     1    11     8     8
 -0.0007665871     1    11     8    15
 0.0011064608     1    11     8    16
 0.0007964822     1    11     9     9
 0.0011064608     1    11     9    15
 0.0007665871     1    11     9    16
 -0.0619619996     1    11    10     2
 0.0023039228     1    11    10     4
 -0.0005804538     1    11    10    10
 0.0029874186     1    11    10    17
 -0.4706726796     1    11    11     1
 0.0055359259     1    11    11     3
 -0.0031226104     1    11    11     7
 0.0084013401     1    11    11    14
 -0.0002245027     1    11    12     5
 -0.0001809778     1    11    12     6
 0.0006968695     1    11    12    12
 -0.0001809778     1    11    13     5
 0.0002245027     1    11    13     6
 0.0006968695     1    11    13    13
 -0.0105210185     1    11    14     1
 -0.0040646371     1    11    14     3
 0.0010615061     1    11    14     7
 -0.0020377739     1    11    14    14
 -0.0005997816     1    11    15     8
 0.0008657005     1    11    15     9
 0.0012962523     1    11    15    15
 0.0008657005     1    11    16     8
 0.0005997816     1    11    16     9
 0.0012962523     1    11    16    16
 -0.0745829837     1    11    17     2
 -0.0106900370     1    11    17     4
 -0.0057794291     1    11    17    10
 -0.0022567506     1    11    17    17
 0.0046939186     1    11    18    18
 0.0046939186     1    11    19    19
 0.0002320859     1    12     2     8
 0.0005872236     1    12     2     9
 0.0004837965     1    12     2    15
 0.0007248879     1    12     2    16
 -0.0062541094     1    12     3     5
 -0.0050416093     1    12     3     6
 -0.0030497691     1    12     4     8
 -0.0077165261     1    12     4     9
 -0.0017357338     1    12     4    15
 -0.0026007057     1    12     4    16
 0.1738338341     1    12     5     1
 -0.0162831810     1    12     5     3
 0.0094241948     1    12     5     7
 0.0040213212     1    12     5    11
 -0.0094173316     1    12     5    14
 -0.0094233779     1    12     5    18
 0.0047234884     1    12     5    19
 0.1401322259     1    12     6     1
 -0.0131263193     1    12     6     3
 0.0075971021     1    12     6     7
 0.0032416973     1    12     6    11
 -0.0075915695     1    12     6    14
 -0.0047234884     1    12     6    18
 -0.0094233779     1    12     6    19
 0.0041205340     1    12     7     5
 0.0033216755     1    12     7     6
 -0.0367893701     1    12     8     2
 -0.0064043262     1    12     8     4
 -0.0031480587     1    12     8    10
 0.0011492597     1    12     8    17
 -0.0930844673     1    12     9     2
 -0.0162042266     1    12     9     4
 -0.0079652185     1    12     9    10
 0.0029078569     1    12     9    17
 -0.0008931294     1    12    10     8
 -0.0022597960     1    12    10     9
 -0.0010509478     1    12    10    15
 -0.0015746690     1    12    10    16
 0.0038281079     1    12    11     5
 0.0030859428     1    12    11     6
 -0.5641800598     1    12    12     1
 0.0128502964     1    12    12     3
 -0.0077854759     1    12    12     7
 -0.0006968695     1    12    12    11
 0.0174228970     1    12    12    14
 0.0025535653     1    12    12    18
 0.0005544718     1    12    12    19
 0.0005544718     1    12    13    18
 -0.0025535653     1    12    13    19
 0.0038238555     1    12    14     5
 0.0030825149     1    12    14     6
 -0.1117148786     1    12    15     2
 -0.0078049706     1    12    15     4
 -0.0057687324     1    12    15    10
 0.0014185349     1    12    15    17
 -0.1673859987     1    12    16     2
 -0.0116944387     1    12    16     4
 -0.0086434774     1    12    16    10
 0.0021254365     1    12    16    17
 0.0014521067     1    12    17     8
 0.0036741204     1    12    17     9
 -0.0004694081     1    12    17    15
 -0.0007033293     1    12    17    16
 -0.0069435728     1    12    18     5
 -0.0034804808     1    12    18     6
 0.0034804808     1    12    19     5
 -0.0069435728     1    12    19     6
 0.0005872236     1    13     2     8
 -0.0002320859     1    13     2     9
 -0.0007248879     1    13     2    15
 0.0004837965     1    13     2    16
 -0.0050416093     1    13     3     5
 0.0062541094     1    13     3     6
 -0.0077165261     1    13     4     8
 0.0030497691     1    13     4     9
 0.0026007057     1    13     4    15
 -0.0017357338     1    13     4    16
 0.1401322259     1    13     5     1
 -0.0131263193     1    13     5     3
 0.0075971021     1    13     5     7
 0.0032416973     1    13     5    11
 -0.0075915695     1    13     5    14
 0.0047234884     1    13     5    18
 0.0094233779     1    13     5    19
 -0.1738338341     1    13     6     1