&FCI NORB= 13,NELEC= 14,MS2=0,
 ORBSYM=1,1,1,1,1,1,1,1,1,1,1,1,1
 ISYM=1,
&END
 0.4030636197     1     1     2     2
 0.0041882570     1     1     2     4
 0.0065119047     1     1     2    10
 0.7128948374     1     1     3     3
 0.0000000001     1     1     3     4
 -0.0738675566     1     1     3     5
 -0.0000000001     1     1     3    10
 -0.0524898522     1     1     3    11
 0.0041882570     1     1     4     2
 0.0000000001     1     1     4     3
 0.6221671394     1     1     4     4
 0.0000000001     1     1     4     5
 -0.0909097512     1     1     4    10
 -0.0738675566     1     1     5     3
 0.0000000001     1     1     5     4
 0.6541732906     1     1     5     5
 0.0000000001     1     1     5    10
 0.1802233718     1     1     5    11
 0.6226457742     1     1     6     6
 -0.0000000001     1     1     6     8
 0.2060622159     1     1     6    12
 0.0148533281     1     1     6    13
 0.6226457742     1     1     7     7
 -0.0000000001     1     1     7     9
 -0.0148533281     1     1     7    12
 0.2060622159     1     1     7    13
 -0.0000000001     1     1     8     6
 0.6069987772     1     1     8     8
 -0.0000000001     1     1     8    12
 -0.0000000001     1     1     9     7
 0.6069987772     1     1     9     9
 -0.0000000001     1     1     9    13
 0.0065119047     1     1    10     2
 -0.0000000001     1     1    10     3
 -0.0909097512     1     1    10     4
 0.0000000001     1     1    10     5
 0.5455627730     1     1    10    10
 -0.0524898522     1     1    11     3
 0.1802233718     1     1    11     5
 0.5003471168     1     1    11    11
 0.2060622159     1     1    12     6
 -0.0148533281     1     1    12     7
 -0.0000000001     1     1    12     8
 0.5814206353     1     1    12    12
 0.0148533281     1     1    13     6
 0.2060622159     1     1    13     7
 -0.0000000001     1     1    13     9
 0.5814206353     1     1    13    13
 -0.4030636197     1     2     2     1
 -0.0050892284     1     2     2     3
 0.0113216691     1     2     2     5
 0.0095272950     1     2     2    11
 -0.1957698496     1     2     3     4
 0.1433502921     1     2     3    10
 -0.0041882570     1     2     4     1
 -0.1958896577     1     2     4     3
 -0.2204387271     1     2     4     5
 -0.0507165456     1     2     4    11
 -0.2206722762     1     2     5     4
 -0.1190989042     1     2     5    10
 0.2170244269     1     2     6     8
 -0.0075764896     1     2     6     9
 0.0075764896     1     2     7     8
 0.2170244269     1     2     7     9
 0.2167443803     1     2     8     6
 0.0075667129     1     2     8     7
 0.1710178331     1     2     8    12
 0.0183437920     1     2     8    13
 -0.0075667129     1     2     9     6
 0.2167443803     1     2     9     7
 -0.0183437920     1     2     9    12
 0.1710178331     1     2     9    13
 -0.0065119047     1     2    10     1
 0.1431407453     1     2    10     3
 -0.1187391247     1     2    10     5
 -0.0153769848     1     2    10    11
 -0.0509323182     1     2    11     4
 -0.0156801729     1     2    11    10
 0.1713094730     1     2    12     8
 -0.0183750740     1     2    12     9
 0.0183750740     1     2    13     8
 0.1713094730     1     2    13     9
 0.0050892284     1     3     2     2
 0.0001125337     1     3     2     4
 0.0001821859     1     3     2    10
 -0.7128948374     1     3     3     1
 0.0155040436     1     3     3     5
 0.0153123205     1     3     3    11
 -0.0000000001     1     3     4     1
 0.1958896577     1     3     4     2
 -0.0059666640     1     3     4     4
 -0.0054960693     1     3     4    10
 0.0738675566     1     3     5     1
 -0.0229584264     1     3     5     5
 -0.0171662183     1     3     5    11
 -0.0163962226     1     3     6     6
 -0.0215758791     1     3     6    12
 -0.0015552274     1     3     6    13
 -0.0163962226     1     3     7     7
 0.0015552274     1     3     7    12
 -0.0215758791     1     3     7    13
 -0.0154115404     1     3     8     8
 -0.0154115404     1     3     9     9
 0.0000000001     1     3    10     1
 -0.1431407453     1     3    10     2
 -0.0069596351     1     3    10     4
 -0.0037467241     1     3    10    10
 0.0524898522     1     3    11     1
 -0.0121131130     1     3    11     5
 -0.0110397182     1     3    11    11
 -0.0124990355     1     3    12     6
 0.0009009525     1     3    12     7
 -0.0165643478     1     3    12    12
 -0.0009009525     1     3    13     6
 -0.0124990355     1     3    13     7
 -0.0165643478     1     3    13    13
 -0.0041882570     1     4     2     1
 -0.0001125337     1     4     2     3
 0.0002362147     1     4     2     5
 0.0002213331     1     4     2    11
 -0.0000000001     1     4     3     1
 0.1957698496     1     4     3     2
 0.0018664221     1     4     3    10
 -0.6221671394     1     4     4     1
 0.0059666640     1     4     4     3
 -0.0028796016     1     4     4     5
 -0.0059830374     1     4     4    11
 -0.0000000001     1     4     5     1
 0.2206722762     1     4     5     2
 -0.0147471385     1     4     5    10
 0.0134603197     1     4     6     8
 -0.0004699101     1     4     6     9
 0.0004699101     1     4     7     8
 0.0134603197     1     4     7     9
 0.0142927454     1     4     8     6
 0.0004989707     1     4     8     7
 0.0214995762     1     4     8    12
 0.0023060972     1     4     8    13
 -0.0004989707     1     4     9     6
 0.0142927454     1     4     9     7
 -0.0023060972     1     4     9    12
 0.0214995762     1     4     9    13
 0.0909097512     1     4    10     1
 0.0069596351     1     4    10     3
 -0.0097974443     1     4    10     5
 -0.0117201461     1     4    10    11
 0.0509323182     1     4    11     2
 -0.0093842849     1     4    11    10
 0.0136812642     1     4    12     8
 -0.0014674860     1     4    12     9
 0.0014674860     1     4    13     8
 0.0136812642     1     4    13     9
 -0.0113216691     1     5     2     2
 -0.0002362147     1     5     2     4
 -0.0003694227     1     5     2    10
 0.0738675566     1     5     3     1
 -0.0155040436     1     5     3     3
 -0.0048248919     1     5     3    11
 -0.0000000001     1     5     4     1
 0.2204387271     1     5     4     2
 0.0028796016     1     5     4     4
 -0.0045439232     1     5     4    10
 -0.6541732906     1     5     5     1
 0.0229584264     1     5     5     3
 -0.0069408427     1     5     5    11
 -0.0112311251     1     5     6     6
 -0.0088976353     1     5     6    12
 -0.0006413572     1     5     6    13
 -0.0112311251     1     5     7     7
 0.0006413572     1     5     7    12
 -0.0088976353     1     5     7    13
 -0.0085707740     1     5     8     8
 -0.0085707740     1     5     9     9
 -0.0000000001     1     5    10     1
 0.1187391247     1     5    10     2
 0.0097974443     1     5    10     4
 -0.0117857244     1     5    10    10
 -0.1802233718     1     5    11     1
 0.0121131130     1     5    11     3
 -0.0018050870     1     5    11    11
 -0.0058890559     1     5    12     6
 0.0004244936     1     5    12     7
 -0.0086313999     1     5    12    12
 -0.0004244936     1     5    13     6
 -0.0058890559     1     5    13     7
 -0.0086313999     1     5    13    13
 0.0002707087     1     6     2     8
 -0.0000094506     1     6     2     9
 -0.0087387333     1     6     3    12
 -0.0006299033     1     6     3    13
 -0.0013536520     1     6     4     8
 0.0000472570     1     6     4     9
 -0.0027144443     1     6     5    12
 -0.0001956620     1     6     5    13
 -0.6226457742     1     6     6     1
 0.0163962226     1     6     6     3
 0.0112311251     1     6     6     5
 0.0082522229     1     6     6    11
 0.0000000001     1     6     8     1
 -0.2167443803     1     6     8     2
 -0.0142927454     1     6     8     4
 0.0120197469     1     6     8    10
 0.0075667129     1     6     9     2
 0.0004989707     1     6     9     4
 -0.0004196186     1     6     9    10
 0.0004922859     1     6    10     8
 -0.0000171861     1     6    10     9
 -0.0030696119     1     6    11    12
 -0.0002212630     1     6    11    13
 -0.2060622159     1     6    12     1
 0.0124990355     1     6    12     3
 0.0058890559     1     6    12     5
 0.0028657089     1     6    12    11
 -0.0148533281     1     6    13     1
 0.0009009525     1     6    13     3
 0.0004244936     1     6    13     5
 0.0002065653     1     6    13    11
 0.0000094506     1     7     2     8
 0.0002707087     1     7     2     9
 0.0006299033     1     7     3    12
 -0.0087387333     1     7     3    13
 -0.0000472570     1     7     4     8
 -0.0013536520     1     7     4     9
 0.0001956620     1     7     5    12
 -0.0027144443     1     7     5    13
 -0.6226457742     1     7     7     1
 0.0163962226     1     7     7     3
 0.0112311251     1     7     7     5
 0.0082522229     1     7     7    11
 -0.0075667129     1     7     8     2
 -0.0004989707     1     7     8     4
 0.0004196186     1     7     8    10
 0.0000000001     1     7     9     1
 -0.2167443803     1     7     9     2
 -0.0142927454     1     7     9     4
 0.0120197469     1     7     9    10
 0.0000171861     1     7    10     8
 0.0004922859     1     7    10     9
 0.0002212630     1     7    11    12
 -0.0030696119     1     7    11    13
 0.0148533281     1     7    12     1
 -0.0009009525     1     7    12     3
 -0.0004244936     1     7    12     5
 -0.0002065653     1     7    12    11
 -0.2060622159     1     7    13     1
 0.0124990355     1     7    13     3
 0.0058890559     1     7    13     5
 0.0028657089     1     7    13    11
 -0.0002707087     1     8     2     6
 -0.0000094506     1     8     2     7
 -0.0002965000     1     8     2    12
 -0.0000318033     1     8     2    13
 0.0013536520     1     8     4     6
 0.0000472570     1     8     4     7
 0.0073617461     1     8     4    12
 0.0007896389     1     8     4    13
 0.0000000001     1     8     6     1
 -0.2170244269     1     8     6     2
 -0.0134603197     1     8     6     4
 0.0112895948     1     8     6    10
 -0.0075764896     1     8     7     2
 -0.0004699101     1     8     7     4
 0.0003941284     1     8     7    10
 -0.6069987772     1     8     8     1
 0.0154115404     1     8     8     3
 0.0085707740     1     8     8     5
 0.0035855022     1     8     8    11
 -0.0004922859     1     8    10     6
 -0.0000171861     1     8    10     7
 -0.0029192309     1     8    10    12
 -0.0003131239     1     8    10    13
 0.0000000001     1     8    12     1
 -0.1713094730     1     8    12     2
 -0.0136812642     1     8    12     4
 0.0100394611     1     8    12    10
 -0.0183750740     1     8    13     2
 -0.0014674860     1     8    13     4
 0.0010768572     1     8    13    10
 0.0000094506     1     9     2     6
 -0.0002707087     1     9     2     7
 0.0000318033     1     9     2    12
 -0.0002965000     1     9     2    13
 -0.0000472570     1     9     4     6
 0.0013536520     1     9     4     7
 -0.0007896389     1     9     4    12
 0.0073617461     1     9     4    13
 0.0075764896     1     9     6     2
 0.0004699101     1     9     6     4
 -0.0003941284     1     9     6    10
 0.0000000001     1     9     7     1
 -0.2170244269     1     9     7     2
 -0.0134603197     1     9     7     4
 0.0112895948     1     9     7    10
 -0.6069987772     1     9     9     1
 0.0154115404     1     9     9     3
 0.0085707740     1     9     9     5
 0.0035855022     1     9     9    11
 0.0000171861     1     9    10     6
 -0.0004922859     1     9    10     7
 0.0003131239     1     9    10    12
 -0.0029192309     1     9    10    13
 0.0183750740     1     9    12     2
 0.0014674860     1     9    12     4
 -0.0010768572     1     9    12    10
 0.0000000001     1     9    13     1
 -0.1713094730     1     9    13     2
 -0.0136812642     1     9    13     4
 0.0100394611     1     9    13    10
 -0.0065119047     1    10     2     1
 -0.0001821859     1    10     2     3
 0.0003694227     1    10     2     5
 0.0002996222     1    10     2    11
 0.0000000001     1    10     3     1
 -0.1433502921     1    10     3     2
 -0.0018664221     1    10     3     4
 0.0909097512     1    10     4     1
 0.0054960693     1    10     4     3
 0.0045439232     1    10     4     5
 -0.0022272133     1    10     4    11
 -0.0000000001     1    10     5     1
 0.1190989042     1    10     5     2
 0.0147471385     1    10     5     4
 -0.0112895948     1    10     6     8
 0.0003941284     1    10     6     9
 -0.0003941284     1    10     7     8
 -0.0112895948     1    10     7     9
 -0.0120197469     1    10     8     6
 -0.0004196186     1    10     8     7
 -0.0130519558     1    10     8    12
 -0.0013999848     1    10     8    13
 0.0004196186     1    10     9     6
 -0.0120197469     1    10     9     7
 0.0013999848     1    10     9    12
 -0.0130519558     1    10     9    13
 -0.5455627730     1    10    10     1
 0.0037467241     1    10    10     3
 0.0117857244     1    10    10     5
 0.0057637795     1    10    10    11
 0.0156801729     1    10    11     2
 0.0093842849     1    10    11     4
 -0.0100394611     1    10    12     8
 0.0010768572     1    10    12     9
 -0.0010768572     1    10    13     8
 -0.0100394611     1    10    13     9
 -0.0095272950     1    11     2     2
 -0.0002213331     1    11     2     4
 -0.0002996222     1    11     2    10
 0.0524898522     1    11     3     1
 -0.0153123205     1    11     3     3
 0.0048248919     1    11     3     5
 0.0507165456     1    11     4     2
 0.0059830374     1    11     4     4
 0.0022272133     1    11     4    10
 -0.1802233718     1    11     5     1
 0.0171662183     1    11     5     3
 0.0069408427     1    11     5     5
 -0.0082522229     1    11     6     6
 -0.0060821957     1    11     6    12
 -0.0004384154     1    11     6    13
 -0.0082522229     1    11     7     7
 0.0004384154     1    11     7    12
 -0.0060821957     1    11     7    13
 -0.0035855022     1    11     8     8
 -0.0035855022     1    11     9     9
 0.0153769848     1    11    10     2
 0.0117201461     1    11    10     4
 -0.0057637795     1    11    10    10
 -0.5003471168     1    11    11     1
 0.0110397182     1    11    11     3
 0.0018050870     1    11    11     5
 -0.0028657089     1    11    12     6
 0.0002065653     1    11    12     7
 -0.0044524611     1    11    12    12
 -0.0002065653     1    11    13     6
 -0.0028657089     1    11    13     7
 -0.0044524611     1    11    13    13
 0.0002965000     1    12     2     8
 -0.0000318033     1    12     2     9
 0.0087387333     1    12     3     6
 -0.0006299033     1    12     3     7
 -0.0073617461     1    12     4     8
 0.0007896389     1    12     4     9
 0.0027144443     1    12     5     6
 -0.0001956620     1    12     5     7
 -0.2060622159     1    12     6     1
 0.0215758791     1    12     6     3
 0.0088976353     1    12     6     5
 0.0060821957     1    12     6    11
 0.0148533281     1    12     7     1
 -0.0015552274     1    12     7     3
 -0.0006413572     1    12     7     5
 -0.0004384154     1    12     7    11
 0.0000000001     1    12     8     1
 -0.1710178331     1    12     8     2
 -0.0214995762     1    12     8     4
 0.0130519558     1    12     8    10
 0.0183437920     1    12     9     2
 0.0023060972     1    12     9     4
 -0.0013999848     1    12     9    10
 0.0029192309     1    12    10     8
 -0.0003131239     1    12    10     9
 0.0030696119     1    12    11     6
 -0.0002212630     1    12    11     7
 -0.5814206353     1    12    12     1
 0.0165643478     1    12    12     3
 0.0086313999     1    12    12     5
 0.0044524611     1    12    12    11
 0.0000318033     1    13     2     8
 0.0002965000     1    13     2     9
 0.0006299033     1    13     3     6
 0.0087387333     1    13     3     7
 -0.0007896389     1    13     4     8
 -0.0073617461     1    13     4     9
 0.0001956620     1    13     5     6
 0.0027144443     1    13     5     7
 -0.0148533281     1    13     6     1
 0.0015552274     1    13     6     3
 0.0006413572     1    13     6     5
 0.0004384154     1    13     6    11
 -0.2060622159     1    13     7     1
 0.0215758791     1    13     7     3
 0.0088976353     1    13     7     5
 0.0060821957     1    13     7    11
 -0.0183437920     1    13     8     2
 -0.0023060972     1    13     8     4
 0.0013999848     1    13     8    10
 0.0000000001     1    13     9     1
 -0.1710178331     1    13     9     2
 -0.0214995762     1    13     9     4
 0.0130519558     1    13     9    10
 0.0003131239     1    13    10     8
 0.0029192309     1    13    10     9
 0.0002212630     1    13    11     6
 0.0030696119     1    13    11     7
 -0.5814206353     1    13    13     1
 0.0165643478     1    13    13     3
 0.0086313999     1    13    13     5
 0.0044524611     1    13    13    11
 -0.4030636197     2     1     1     2
 -0.0041882570     2     1     1     4
 -0.0065119047     2     1     1    10
 -0.0050892284     2     1     3     2
 -0.1958896577     2     1     3     4
 0.1431407453     2     1     3    10
 -0.1957698496     2     1     4     3
 -0.2206722762     2     1     4     5
 -0.0509323182     2     1     4    11
 0.0113216691     2     1     5     2
 -0.2204387271     2     1     5     4
 -0.1187391247     2     1     5    10
 0.2167443803     2     1     6     8
 -0.0075667129     2     1     6     9
 0.0075667129     2     1     7     8
 0.2167443803     2     1     7     9
 0.2170244269     2     1     8     6
 0.0075764896     2     1     8     7
 0.1713094730     2     1     8    12
 0.0183750740     2     1     8    13
 -0.0075764896     2     1     9     6
 0.2170244269     2     1     9     7
 -0.0183750740     2     1     9    12
 0.1713094730     2     1     9    13
 0.1433502921     2     1    10     3
 -0.1190989042     2     1    10     5
 -0.0156801729     2     1    10    11
 0.0095272950     2     1    11     2
 -0.0507165456     2     1    11     4
 -0.0153769848     2     1    11    10
 0.1710178331     2     1    12     8
 -0.0183437920     2     1    12     9
 0.0183437920     2     1    13     8
 0.1710178331     2     1    13     9
 0.4030636197     2     2     1     1
 0.0050892284     2     2     1     3
 -0.0113216691     2     2     1     5
 -0.0095272950     2     2     1    11
 0.0050892284     2     2     3     1
 0.7129908564     2     2     3     3
 -0.0000000001     2     2     3     4
 -0.0741276984     2     2     3     5
 0.0000000001     2     2     3    10
 -0.0527014518     2     2     3    11
 -0.0000000001     2     2     4     3
 0.6220855088     2     2     4     4
 -0.0000000001     2     2     4     5
 -0.0910224934     2     2     4    10
 -0.0113216691     2     2     5     1
 -0.0741276984     2     2     5     3
 -0.0000000001     2     2     5     4
 0.6548141581     2     2     5     5
 -0.0000000001     2     2     5    10
 0.1807679443     2     2     5    11
 0.6229364535     2     2     6     6
 0.0000000001     2     2     6     8
 0.2064006295     2     2     6    12
 0.0148777216     2     2     6    13
 0.6229364535     2     2     7     7
 0.0000000001     2     2     7     9
 -0.0148777216     2     2     7    12
 0.2064006295     2     2     7    13
 0.0000000001     2     2     8     6
 0.6067759715     2     2     8     8
 0.0000000001     2     2     8    12
 0.0000000001     2     2     9     7
 0.6067759715     2     2     9     9
 0.0000000001     2     2     9    13
 0.0000000001     2     2    10     3
 -0.0910224934     2     2    10     4
 -0.0000000001     2     2    10     5
 0.5453422969     2     2    10    10
 -0.0095272950     2     2    11     1
 -0.0527014518     2     2    11     3
 0.1807679443     2     2    11     5
 0.5008171348     2     2    11    11
 0.2064006295     2     2    12     6
 -0.0148777216     2     2    12     7
 0.0000000001     2     2    12     8
 0.5818025113     2     2    12    12
 0.0148777216     2     2    13     6
 0.2064006295     2     2    13     7
 0.0000000001     2     2    13     9
 0.5818025113     2     2    13    13
 -0.0050892284     2     3     1     2
 -0.0001125337     2     3     1     4
 -0.0001821859     2     3     1    10
 -0.7129908564     2     3     3     2
 -0.0070114528     2     3     3     4
 -0.0104716301     2     3     3    10
 0.1957698496     2     3     4     1
 0.0000000001     2     3     4     2
 0.0127644294     2     3     4     5
 0.0065621948     2     3     4    11
 0.0741276984     2     3     5     2
 0.0166738021     2     3     5     4
 0.0120613919     2     3     5    10
 -0.0199566006     2     3     6     8
 0.0006967003     2     3     6     9
 -0.0006967003     2     3     7     8
 -0.0199566006     2     3     7     9
 -0.0149022990     2     3     8     6
 -0.0005202507     2     3     8     7
 -0.0192407215     2     3     8    12
 -0.0020638069     2     3     8    13
 0.0005202507     2     3     9     6
 -0.0149022990     2     3     9     7
 0.0020638069     2     3     9    12
 -0.0192407215     2     3     9    13
 -0.1433502921     2     3    10     1
 -0.0000000001     2     3    10     2
 0.0104133042     2     3    10     5
 0.0069873677     2     3    10    11
 0.0527014518     2     3    11     2
 0.0080337467     2     3    11     4
 0.0048245534     2     3    11    10
 -0.0152144374     2     3    12     8
 0.0016319379     2     3    12     9
 -0.0016319379     2     3    13     8
 -0.0152144374     2     3    13     9
 0.0041882570     2     4     1     1
 0.0001125337     2     4     1     3
 -0.0002362147     2     4     1     5
 -0.0002213331     2     4     1    11
 0.1958896577     2     4     3     1
 0.0000000001     2     4     3     2
 0.0070114528     2     4     3     3
 -0.0039395242     2     4     3     5
 -0.0017622704     2     4     3    11
 -0.6220855088     2     4     4     2
 0.0033808580     2     4     4    10
 0.2204387271     2     4     5     1
 0.0000000001     2     4     5     2
 -0.0166738021     2     4     5     3
 0.0200704255     2     4     5     5
 0.0198244774     2     4     5    11
 0.0180172722     2     4     6     6
 0.0200912341     2     4     6    12
 0.0014482116     2     4     6    13
 0.0180172722     2     4     7     7
 -0.0014482116     2     4     7    12
 0.0200912341     2     4     7    13
 0.0192021621     2     4     8     8
 0.0192021621     2     4     9     9
 0.0910224934     2     4    10     2
 0.0117192001     2     4    10    10
 0.0507165456     2     4    11     1
 -0.0080337467     2     4    11     3
 0.0099031467     2     4    11     5
 0.0100679537     2     4    11    11
 0.0137865274     2     4    12     6
 -0.0009937572     2     4    12     7
 0.0188489769     2     4    12    12
 0.0009937572     2     4    13     6
 0.0137865274     2     4    13     7
 0.0188489769     2     4    13    13
 0.0113216691     2     5     1     2
 0.0002362147     2     5     1     4
 0.0003694227     2     5     1    10
 0.0741276984     2     5     3     2
 0.0039395242     2     5     3     4
 0.0014327515     2     5     3    10
 0.2206722762     2     5     4     1
 0.0000000001     2     5     4     2
 -0.0127644294     2     5     4     3
 0.0096447922     2     5     4    11
 -0.6548141581     2     5     5     2
 -0.0200704255     2     5     5     4
 0.0063088598     2     5     5    10
 -0.0008288136     2     5     6     8
 0.0000289345     2     5     6     9
 -0.0000289345     2     5     7     8
 -0.0008288136     2     5     7     9
 -0.0022681717     2     5     8     6
 -0.0000791836     2     5     8     7
 -0.0073422073     2     5     8    12
 -0.0007875432     2     5     8    13
 0.0000791836     2     5     9     6
 -0.0022681717     2     5     9     7
 0.0007875432     2     5     9    12
 -0.0073422073     2     5     9    13
 0.1190989042     2     5    10     1
 0.0000000001     2     5    10     2
 -0.0104133042     2     5    10     3
 0.0071160120     2     5    10    11
 -0.1807679443     2     5    11     2
 -0.0099031467     2     5    11     4
 0.0081770714     2     5    11    10
 -0.0027769824     2     5    12     8
 0.0002978659     2     5    12     9
 -0.0002978659     2     5    13     8
 -0.0027769824     2     5    13     9
 -0.0002707087     2     6     1     8
 0.0000094506     2     6     1     9
 -0.0042514449     2     6     3     8
 0.0001484212     2     6     3     9
 0.0057847752     2     6     4    12
 0.0004169769     2     6     4    13
 0.0012320991     2     6     5     8
 -0.0000430136     2     6     5     9
 -0.6229364535     2     6     6     2
 -0.0180172722     2     6     6     4
 0.0053519337     2     6     6    10
 -0.2170244269     2     6     8     1
 -0.0000000001     2     6     8     2
 0.0149022990     2     6     8     3
 0.0022681717     2     6     8     5
 -0.0011240475     2     6     8    11
 0.0075764896     2     6     9     1
 -0.0005202507     2     6     9     3
 -0.0000791836     2     6     9     5
 0.0000392414     2     6     9    11
 -0.0023625628     2     6    10    12
 -0.0001702977     2     6    10    13
 -0.0008913429     2     6    11     8
 0.0000311175     2     6    11     9
 -0.2064006295     2     6    12     2
 -0.0137865274     2     6    12     4
 0.0075278070     2     6    12    10
 -0.0148777216     2     6    13     2
 -0.0009937572     2     6    13     4
 0.0005426177     2     6    13    10
 -0.0000094506     2     7     1     8
 -0.0002707087     2     7     1     9
 -0.0001484212     2     7     3     8
 -0.0042514449     2     7     3     9
 -0.0004169769     2     7     4    12
 0.0057847752     2     7     4    13
 0.0000430136     2     7     5     8
 0.0012320991     2     7     5     9
 -0.6229364535     2     7     7     2
 -0.0180172722     2     7     7     4
 0.0053519337     2     7     7    10
 -0.0075764896     2     7     8     1
 0.0005202507     2     7     8     3
 0.0000791836     2     7     8     5
 -0.0000392414     2     7     8    11
 -0.2170244269     2     7     9     1
 -0.0000000001     2     7     9     2
 0.0149022990     2     7     9     3
 0.0022681717     2     7     9     5
 -0.0011240475     2     7     9    11
 0.0001702977     2     7    10    12
 -0.0023625628     2     7    10    13
 -0.0000311175     2     7    11     8
 -0.0008913429     2     7    11     9
 0.0148777216     2     7    12     2
 0.0009937572     2     7    12     4
 -0.0005426177     2     7    12    10
 -0.2064006295     2     7    13     2
 -0.0137865274     2     7    13     4
 0.0075278070     2     7    13    10
 0.0002707087     2     8     1     6
 0.0000094506     2     8     1     7
 0.0002965000     2     8     1    12
 0.0000318033     2     8     1    13
 0.0042514449     2     8     3     6
 0.0001484212     2     8     3     7
 -0.0039375965     2     8     3    12
 -0.0004223562     2     8     3    13
 -0.0012320991     2     8     5     6
 -0.0000430136     2     8     5     7
 -0.0044170361     2     8     5    12
 -0.0004737821     2     8     5    13
 -0.2167443803     2     8     6     1
 -0.0000000001     2     8     6     2
 0.0199566006     2     8     6     3
 0.0008288136     2     8     6     5
 -0.0003795543     2     8     6    11
 -0.0075667129     2     8     7     1
 0.0006967003     2     8     7     3
 0.0000289345     2     8     7     5
 -0.0000132506     2     8     7    11
 -0.6067759715     2     8     8     2
 -0.0192021621     2     8     8     4
 0.0095228436     2     8     8    10
 0.0008913429     2     8    11     6
 0.0000311175     2     8    11     7
 -0.0020874447     2     8    11    12
 -0.0002239045     2     8    11    13
 -0.1710178331     2     8    12     1
 -0.0000000001     2     8    12     2
 0.0152144374     2     8    12     3
 0.0027769824     2     8    12     5
 0.0001077856     2     8    12    11
 -0.0183437920     2     8    13     1
 0.0016319379     2     8    13     3
 0.0002978659     2     8    13     5
 0.0000115614     2     8    13    11
 -0.0000094506     2     9     1     6
 0.0002707087     2     9     1     7
 -0.0000318033     2     9     1    12
 0.0002965000     2     9     1    13
 -0.0001484212     2     9     3     6
 0.0042514449     2     9     3     7
 0.0004223562     2     9     3    12
 -0.0039375965     2     9     3    13
 0.0000430136     2     9     5     6
 -0.0012320991     2     9     5     7
 0.0004737821     2     9     5    12
 -0.0044170361     2     9     5    13
 0.0075667129     2     9     6     1
 -0.0006967003     2     9     6     3
 -0.0000289345     2     9     6     5
 0.0000132506     2     9     6    11
 -0.2167443803     2     9     7     1
 -0.0000000001     2     9     7     2
 0.0199566006     2     9     7     3
 0.0008288136     2     9     7     5
 -0.0003795543     2     9     7    11
 -0.6067759715     2     9     9     2
 -0.0192021621     2     9     9     4
 0.0095228436     2     9     9    10
 -0.0000311175     2     9    11     6
 0.0008913429     2     9    11     7
 0.0002239045     2     9    11    12
 -0.0020874447     2     9    11    13
 0.0183437920     2     9    12     1
 -0.0016319379     2     9    12     3
 -0.0002978659     2     9    12     5
 -0.0000115614     2     9    12    11
 -0.1710178331     2     9    13     1
 -0.0000000001     2     9    13     2
 0.0152144374     2     9    13     3
 0.0027769824     2     9    13     5
 0.0001077856     2     9    13    11
 0.0065119047     2    10     1     1
 0.0001821859     2    10     1     3
 -0.0003694227     2    10     1     5
 -0.0002996222     2    10     1    11
 -0.1431407453     2    10     3     1
 -0.0000000001     2    10     3     2
 0.0104716301     2    10     3     3
 -0.0014327515     2    10     3     5
 0.0021926919     2    10     3    11
 0.0910224934     2    10     4     2
 -0.0033808580     2    10     4     4
 0.1187391247     2    10     5     1
 0.0000000001     2    10     5     2