&FCI NORB=  6,NELEC=  6,MS2=0,
 ORBSYM=1,1,1,1,1,1
 ISYM=1,
&END
 0.3813063163     1     1     2     2
 0.0000000001     1     1     2     4
 -0.0000000001     1     1     2     5
 0.3813063163     1     1     3     3
 -0.0000000001     1     1     3     4
 -0.0000000001     1     1     3     5
 0.0000000001     1     1     4     2
 -0.0000000001     1     1     4     3
 0.3636142661     1     1     4     4
 -0.0000000001     1     1     5     2
 -0.0000000001     1     1     5     3
 0.3636142661     1     1     5     5
 0.1864318630     1     1     6     6
 -0.3813063163     1     2     2     1
 -0.0000000002     1     2     2     6
 -0.0000000006     1     2     3     6
 -0.0000000001     1     2     4     1
 -0.0971148963     1     2     4     6
 0.0000000001     1     2     5     1
 0.1601508589     1     2     5     6
 0.0008534841     1     2     6     4
 -0.0014074691     1     2     6     5
 -0.0000000006     1     3     2     6
 -0.3813063163     1     3     3     1
 0.0000000005     1     3     3     6
 0.0000000001     1     3     4     1
 0.1601508589     1     3     4     6
 0.0000000001     1     3     5     1
 0.0971148963     1     3     5     6
 -0.0014074691     1     3     6     4
 -0.0008534841     1     3     6     5
 -0.0000000001     1     4     2     1
 -0.0951021351     1     4     2     6
 0.0000000001     1     4     3     1
 0.1568316416     1     4     3     6
 -0.3636142661     1     4     4     1
 -0.0000000008     1     4     4     6
 -0.0008534841     1     4     6     2
 0.0014074691     1     4     6     3
 0.0000000001     1     5     2     1
 0.1568316416     1     5     2     6
 0.0000000001     1     5     3     1
 0.0951021351     1     5     3     6
 -0.3636142661     1     5     5     1
 0.0000000006     1     5     5     6
 0.0014074691     1     5     6     2
 0.0008534841     1     5     6     3
 0.0000000002     1     6     2     2
 0.0000000006     1     6     2     3
 0.0951021351     1     6     2     4
 -0.1568316416     1     6     2     5
 0.0000000006     1     6     3     2
 -0.0000000005     1     6     3     3
 -0.1568316416     1     6     3     4
 -0.0951021351     1     6     3     5
 0.0971148963     1     6     4     2
 -0.1601508589     1     6     4     3
 0.0000000008     1     6     4     4
 -0.1601508589     1     6     5     2
 -0.0971148963     1     6     5     3
 -0.0000000006     1     6     5     5
 -0.1864318630     1     6     6     1
 -0.3813063163     2     1     1     2
 -0.0000000001     2     1     1     4
 0.0000000001     2     1     1     5
 0.0008534841     2     1     4     6
 -0.0014074691     2     1     5     6
 -0.0000000002     2     1     6     2
 -0.0000000006     2     1     6     3
 -0.0971148963     2     1     6     4
 0.1601508589     2     1     6     5
 0.3813063163     2     2     1     1
 0.0000000002     2     2     1     6
 0.3821044297     2     2     3     3
 -0.0000000005     2     2     3     4
 0.0000000004     2     2     3     5
 -0.0000000005     2     2     4     3
 0.3124469796     2     2     4     4
 0.0828665501     2     2     4     5
 0.0000000004     2     2     5     3
 0.0828665501     2     2     5     4
 0.2260428487     2     2     5     5
 0.0000000002     2     2     6     1
 0.3699478195     2     2     6     6
 0.0000000006     2     3     1     6
 -0.3821044297     2     3     3     2
 -0.0000000003     2     3     3     4
 -0.0000000007     2     3     3     5
 0.0000000005     2     3     4     2
 0.0828665501     2     3     4     4
 -0.1381169544     2     3     4     5
 -0.0000000004     2     3     5     2
 0.0517128235     2     3     5     4
 -0.0828665501     2     3     5     5
 0.0000000006     2     3     6     1
 0.0000000001     2     4     1     1
 0.0951021351     2     4     1     6
 0.0000000005     2     4     3     2
 0.0000000003     2     4     3     3
 -0.1845344978     2     4     3     5
 -0.3124469796     2     4     4     2
 -0.0828665501     2     4     4     3
 0.0000000007     2     4     4     5
 -0.0828665501     2     4     5     2
 -0.0517128235     2     4     5     3
 -0.0000000003     2     4     5     5
 0.0971148963     2     4     6     1
 -0.0000000001     2     4     6     6
 -0.0000000001     2     5     1     1
 -0.1568316416     2     5     1     6
 -0.0000000004     2     5     3     2
 0.0000000007     2     5     3     3
 0.1845344978     2     5     3     4
 -0.0828665501     2     5     4     2
 0.1381169544     2     5     4     3
 -0.0000000007     2     5     4     4
 -0.2260428487     2     5     5     2
 0.0828665501     2     5     5     3
 0.0000000003     2     5     5     4
 -0.1601508589     2     5     6     1
 0.0000000002     2     5     6     6
 -0.0000000002     2     6     1     2
 -0.0000000006     2     6     1     3
 -0.0951021351     2     6     1     4
 0.1568316416     2     6     1     5
 -0.0008534841     2     6     4     1
 0.0014074691     2     6     5     1
 -0.3699478195     2     6     6     2
 0.0000000001     2     6     6     4
 -0.0000000002     2     6     6     5
 -0.3813063163     3     1     1     3
 0.0000000001     3     1     1     4
 0.0000000001     3     1     1     5
 -0.0014074691     3     1     4     6
 -0.0008534841     3     1     5     6
 -0.0000000006     3     1     6     2
 0.0000000005     3     1     6     3
 0.1601508589     3     1     6     4
 0.0971148963     3     1     6     5
 0.0000000006     3     2     1     6
 -0.3821044297     3     2     2     3
 0.0000000005     3     2     2     4
 -0.0000000004     3     2     2     5
 -0.0000000003     3     2     4     3
 0.0828665501     3     2     4     4
 0.0517128235     3     2     4     5
 -0.0000000007     3     2     5     3
 -0.1381169544     3     2     5     4
 -0.0828665501     3     2     5     5
 0.0000000006     3     2     6     1
 0.3813063163     3     3     1     1
 -0.0000000005     3     3     1     6
 0.3821044297     3     3     2     2
 0.0000000003     3     3     2     4
 0.0000000007     3     3     2     5
 0.0000000003     3     3     4     2
 0.2260428487     3     3     4     4
 -0.0828665501     3     3     4     5
 0.0000000007     3     3     5     2
 -0.0828665501     3     3     5     4
 0.3124469796     3     3     5     5
 -0.0000000005     3     3     6     1
 0.3699478195     3     3     6     6
 -0.0000000001     3     4     1     1
 -0.1568316416     3     4     1     6
 -0.0000000005     3     4     2     2
 -0.0000000003     3     4     2     3
 0.1845344978     3     4     2     5
 -0.0828665501     3     4     4     2
 -0.2260428487     3     4     4     3
 0.0000000004     3     4     4     5
 0.1381169544     3     4     5     2
 0.0828665501     3     4     5     3
 0.0000000006     3     4     5     5
 -0.1601508589     3     4     6     1
 0.0000000001     3     4     6     6
 -0.0000000001     3     5     1     1
 -0.0951021351     3     5     1     6
 0.0000000004     3     5     2     2
 -0.0000000007     3     5     2     3
 -0.1845344978     3     5     2     4
 -0.0517128235     3     5     4     2
 0.0828665501     3     5     4     3
 -0.0000000004     3     5     4     4
 0.0828665501     3     5     5     2
 -0.3124469796     3     5     5     3
 -0.0000000006     3     5     5     4
 -0.0971148963     3     5     6     1
 0.0000000001     3     5     6     6
 -0.0000000006     3     6     1     2
 0.0000000005     3     6     1     3
 0.1568316416     3     6     1     4
 0.0951021351     3     6     1     5
 0.0014074691     3     6     4     1
 0.0008534841     3     6     5     1
 -0.3699478195     3     6     6     3
 -0.0000000001     3     6     6     4
 -0.0000000001     3     6     6     5
 -0.0000000001     4     1     1     2
 0.0000000001     4     1     1     3
 -0.3636142661     4     1     1     4
 -0.0008534841     4     1     2     6
 0.0014074691     4     1     3     6
 -0.0951021351     4     1     6     2
 0.1568316416     4     1     6     3
 -0.0000000008     4     1     6     4
 0.0000000001     4     2     1     1
 0.0971148963     4     2     1     6
 0.0000000005     4     2     2     3
 -0.3124469796     4     2     2     4
 -0.0828665501     4     2     2     5
 0.0000000003     4     2     3     3
 -0.0828665501     4     2     3     4
 -0.0517128235     4     2     3     5
 -0.1845344978     4     2     5     3
 0.0000000007     4     2     5     4
 -0.0000000003     4     2     5     5
 0.0951021351     4     2     6     1
 -0.0000000001     4     2     6     6
 -0.0000000001     4     3     1     1
 -0.1601508589     4     3     1     6
 -0.0000000005     4     3     2     2
 -0.0828665501     4     3     2     4
 0.1381169544     4     3     2     5
 -0.0000000003     4     3     3     2
 -0.2260428487     4     3     3     4
 0.0828665501     4     3     3     5
 0.1845344978     4     3     5     2
 0.0000000004     4     3     5     4
 0.0000000006     4     3     5     5
 -0.1568316416     4     3     6     1
 0.0000000001     4     3     6     6
 0.3636142661     4     4     1     1
 0.0000000008     4     4     1     6
 0.3124469796     4     4     2     2
 0.0828665501     4     4     2     3
 -0.0000000007     4     4     2     5
 0.0828665501     4     4     3     2
 0.2260428487     4     4     3     3
 -0.0000000004     4     4     3     5
 -0.0000000007     4     4     5     2
 -0.0000000004     4     4     5     3
 0.3561377184     4     4     5     5
 0.0000000008     4     4     6     1
 0.3620265652     4     4     6     6
 0.0828665501     4     5     2     2
 -0.1381169544     4     5     2     3
 0.0000000007     4     5     2     4
 0.0517128235     4     5     3     2
 -0.0828665501     4     5     3     3
 0.0000000004     4     5     3     4
 0.0000000003     4     5     5     2
 -0.0000000006     4     5     5     3
 -0.3561377184     4     5     5     4
 -0.0971148963     4     6     1     2
 0.1601508589     4     6     1     3
 -0.0000000008     4     6     1     4
 0.0008534841     4     6     2     1
 -0.0014074691     4     6     3     1
 0.0000000001     4     6     6     2
 -0.0000000001     4     6     6     3
 -0.3620265652     4     6     6     4
 0.0000000001     5     1     1     2
 0.0000000001     5     1     1     3
 -0.3636142661     5     1     1     5
 0.0014074691     5     1     2     6
 0.0008534841     5     1     3     6
 0.1568316416     5     1     6     2
 0.0951021351     5     1     6     3
 0.0000000006     5     1     6     5
 -0.0000000001     5     2     1     1
 -0.1601508589     5     2     1     6
 -0.0000000004     5     2     2     3
 -0.0828665501     5     2     2     4
 -0.2260428487     5     2     2     5
 0.0000000007     5     2     3     3
 0.1381169544     5     2     3     4
 0.0828665501     5     2     3     5
 0.1845344978     5     2     4     3
 -0.0000000007     5     2     4     4
 0.0000000003     5     2     4     5
 -0.1568316416     5     2     6     1
 0.0000000002     5     2     6     6
 -0.0000000001     5     3     1     1
 -0.0971148963     5     3     1     6
 0.0000000004     5     3     2     2
 -0.0517128235     5     3     2     4
 0.0828665501     5     3     2     5
 -0.0000000007     5     3     3     2
 0.0828665501     5     3     3     4
 -0.3124469796     5     3     3     5
 -0.1845344978     5     3     4     2
 -0.0000000004     5     3     4     4
 -0.0000000006     5     3     4     5
 -0.0951021351     5     3     6     1
 0.0000000001     5     3     6     6
 0.0828665501     5     4     2     2
 0.0517128235     5     4     2     3
 0.0000000003     5     4     2     5
 -0.1381169544     5     4     3     2
 -0.0828665501     5     4     3     3
 -0.0000000006     5     4     3     5
 0.0000000007     5     4     4     2
 0.0000000004     5     4     4     3
 -0.3561377184     5     4     4     5
 0.3636142661     5     5     1     1
 -0.0000000006     5     5     1     6
 0.2260428487     5     5     2     2
 -0.0828665501     5     5     2     3
 -0.0000000003     5     5     2     4
 -0.0828665501     5     5     3     2
 0.3124469796     5     5     3     3
 0.0000000006     5     5     3     4
 -0.0000000003     5     5     4     2
 0.0000000006     5     5     4     3
 0.3561377184     5     5     4     4
 -0.0000000006     5     5     6     1
 0.3620265652     5     5     6     6
 0.1601508589     5     6     1     2
 0.0971148963     5     6     1     3
 0.0000000006     5     6     1     5
 -0.0014074691     5     6     2     1
 -0.0008534841     5     6     3     1
 -0.0000000002     5     6     6     2
 -0.0000000001     5     6     6     3
 -0.3620265652     5     6     6     5
 -0.1864318630     6     1     1     6
 0.0000000002     6     1     2     2
 0.0000000006     6     1     2     3
 0.0971148963     6     1     2     4
 -0.1601508589     6     1     2     5
 0.0000000006     6     1     3     2
 -0.0000000005     6     1     3     3
 -0.1601508589     6     1     3     4
 -0.0971148963     6     1     3     5
 0.0951021351     6     1     4     2
 -0.1568316416     6     1     4     3
 0.0000000008     6     1     4     4
 -0.1568316416     6     1     5     2
 -0.0951021351     6     1     5     3
 -0.0000000006     6     1     5     5
 -0.0008534841     6     2     1     4
 0.0014074691     6     2     1     5
 -0.0000000002     6     2     2     1
 -0.3699478195     6     2     2     6
 -0.0000000006     6     2     3     1
 -0.0951021351     6     2     4     1
 0.0000000001     6     2     4     6
 0.1568316416     6     2     5     1
 -0.0000000002     6     2     5     6
 0.0014074691     6     3     1     4
 0.0008534841     6     3     1     5
 -0.0000000006     6     3     2     1
 0.0000000005     6     3     3     1
 -0.3699478195     6     3     3     6
 0.1568316416     6     3     4     1
 -0.0000000001     6     3     4     6
 0.0951021351     6     3     5     1
 -0.0000000001     6     3     5     6
 0.0008534841     6     4     1     2
 -0.0014074691     6     4     1     3
 -0.0971148963     6     4     2     1
 0.0000000001     6     4     2     6
 0.1601508589     6     4     3     1
 -0.0000000001     6     4     3     6
 -0.0000000008     6     4     4     1
 -0.3620265652     6     4     4     6
 -0.0014074691     6     5     1     2
 -0.0008534841     6     5     1     3
 0.1601508589     6     5     2     1
 -0.0000000002     6     5     2     6
 0.0971148963     6     5     3     1
 -0.0000000001     6     5     3     6
 0.0000000006     6     5     5     1
 -0.3620265652     6     5     5     6
 0.1864318630     6     6     1     1
 0.3699478195     6     6     2     2
 -0.0000000001     6     6     2     4
 0.0000000002     6     6     2     5
 0.3699478195     6     6     3     3
 0.0000000001     6     6     3     4
 0.0000000001     6     6     3     5
 -0.0000000001     6     6     4     2
 0.0000000001     6     6     4     3
 0.3620265652     6     6     4     4
 0.0000000002     6     6     5     2
 0.0000000001     6     6     5     3
 0.3620265652     6     6     5     5
0.0 0 0 0 0
 0.3813063163     1     1     2     2
 0.0000000001     1     1     2     4
 -0.0000000001     1     1     2     5
 0.3813063163     1     1     3     3
 -0.0000000001     1     1     3     4
 -0.0000000001     1     1     3     5
 0.0000000001     1     1     4     2
 -0.0000000001     1     1     4     3
 0.3636142661     1     1     4     4
 -0.0000000001     1     1     5     2
 -0.0000000001     1     1     5     3
 0.3636142661     1     1     5     5
 0.1864318630     1     1     6     6
 -0.3813063163     1     2     2     1
 -0.0000000002     1     2     2     6
 -0.0000000006     1     2     3     6
 -0.0000000001     1     2     4     1
 -0.0971148963     1     2     4     6
 0.0000000001     1     2     5     1
 0.1601508589     1     2     5     6
 0.0008534841     1     2     6     4
 -0.0014074691     1     2     6     5
 -0.0000000006     1     3     2     6
 -0.3813063163     1     3     3     1
 0.0000000005     1     3     3     6
 0.0000000001     1     3     4     1
 0.1601508589     1     3     4     6
 0.0000000001     1     3     5     1
 0.0971148963     1     3     5     6
 -0.0014074691     1     3     6     4
 -0.0008534841     1     3     6     5
 -0.0000000001     1     4     2     1
 -0.0951021351     1     4     2     6
 0.0000000001     1     4     3     1
 0.1568316416     1     4     3     6
 -0.3636142661     1     4     4     1
 -0.0000000008     1     4     4     6
 -0.0008534841     1     4     6     2
 0.0014074691     1     4     6     3
 0.0000000001     1     5     2     1
 0.1568316416     1     5     2     6
 0.0000000001     1     5     3     1
 0.0951021351     1     5     3     6
 -0.3636142661     1     5     5     1
 0.0000000006     1     5     5     6
 0.0014074691     1     5     6     2
 0.0008534841     1     5     6     3
 0.0000000002     1     6     2     2
 0.0000000006     1     6     2     3
 0.0951021351     1     6     2     4
 -0.1568316416     1     6     2     5
 0.0000000006     1     6     3     2
 -0.0000000005     1     6     3     3
 -0.1568316416     1     6     3     4
 -0.0951021351     1     6     3     5
 0.0971148963     1     6     4     2
 -0.1601508589     1     6     4     3
 0.0000000008     1     6     4     4
 -0.1601508589     1     6     5     2
 -0.0971148963     1     6     5     3
 -0.0000000006     1     6     5     5
 -0.1864318630     1     6     6     1
 -0.3813063163     2     1     1     2
 -0.0000000001     2     1     1     4
 0.0000000001     2     1     1     5
 0.0008534841     2     1     4     6
 -0.0014074691     2     1     5     6
 -0.0000000002     2     1     6     2
 -0.0000000006     2     1     6     3
 -0.0971148963     2     1     6     4
 0.1601508589     2     1     6     5
 0.3813063163     2     2     1     1
 0.0000000002     2     2     1     6
 0.3821044297     2     2     3     3
 -0.0000000005     2     2     3     4
 0.0000000004     2     2     3     5
 -0.0000000005     2     2     4     3
 0.3124469796     2     2     4     4
 0.0828665501     2     2     4     5
 0.0000000004     2     2     5     3
 0.0828665501     2     2     5     4
 0.2260428487     2     2     5     5
 0.0000000002     2     2     6     1
 0.3699478195     2     2     6     6
 0.0000000006     2     3     1     6
 -0.3821044297     2     3     3     2
 -0.0000000003     2     3     3     4
 -0.0000000007     2     3     3     5
 0.0000000005     2     3     4     2
 0.0828665501     2     3     4     4
 -0.1381169544     2     3     4     5
 -0.0000000004     2     3     5     2
 0.0517128235     2     3     5     4
 -0.0828665501     2     3     5     5
 0.0000000006     2     3     6     1
 0.0000000001     2     4     1     1
 0.0951021351     2     4     1     6
 0.0000000005     2     4     3     2
 0.0000000003     2     4     3     3
 -0.1845344978     2     4     3     5
 -0.3124469796     2     4     4     2
 -0.0828665501     2     4     4     3
 0.0000000007     2     4     4     5
 -0.0828665501     2     4     5     2
 -0.0517128235     2     4     5     3
 -0.0000000003     2     4     5     5
 0.0971148963     2     4     6     1
 -0.0000000001     2     4     6     6
 -0.0000000001     2     5     1     1
 -0.1568316416     2     5     1     6
 -0.0000000004     2     5     3     2
 0.0000000007     2     5     3     3
 0.1845344978     2     5     3     4
 -0.0828665501     2     5     4     2
 0.1381169544     2     5     4     3
 -0.0000000007     2     5     4     4
 -0.2260428487     2     5     5     2
 0.0828665501     2     5     5     3
 0.0000000003     2     5     5     4
 -0.1601508589     2     5     6     1
 0.0000000002     2     5     6     6
 -0.0000000002     2     6     1     2
 -0.0000000006     2     6     1     3
 -0.0951021351     2     6     1     4
 0.1568316416     2     6     1     5
 -0.0008534841     2     6     4     1
 0.0014074691     2     6     5     1
 -0.3699478195     2     6     6     2
 0.0000000001     2     6     6     4
 -0.0000000002     2     6     6     5
 -0.3813063163     3     1     1     3
 0.0000000001     3     1     1     4
 0.0000000001     3     1     1     5
 -0.0014074691     3     1     4     6
 -0.0008534841     3     1     5     6
 -0.0000000006     3     1     6     2
 0.0000000005     3     1     6     3
 0.1601508589     3     1     6     4
 0.0971148963     3     1     6     5
 0.0000000006     3     2     1     6
 -0.3821044297     3     2     2     3
 0.0000000005     3     2     2     4
 -0.0000000004     3     2     2     5
 -0.0000000003     3     2     4     3
 0.0828665501     3     2     4     4
 0.0517128235     3     2     4     5
 -0.0000000007     3     2     5     3
 -0.1381169544     3     2     5     4
 -0.0828665501     3     2     5     5
 0.0000000006     3     2     6     1
 0.3813063163     3     3     1     1
 -0.0000000005     3     3     1     6
 0.3821044297     3     3     2     2
 0.0000000003     3     3     2     4
 0.0000000007     3     3     2     5
 0.0000000003     3     3     4     2
 0.2260428487     3     3     4     4
 -0.0828665501     3     3     4     5
 0.0000000007     3     3     5     2
 -0.0828665501     3     3     5     4
 0.3124469796     3     3     5     5
 -0.0000000005     3     3     6     1
 0.3699478195     3     3     6     6
 -0.0000000001     3     4     1     1
 -0.1568316416     3     4     1     6
 -0.0000000005     3     4     2     2
 -0.0000000003     3     4     2     3
 0.1845344978     3     4     2     5
 -0.0828665501     3     4     4     2
 -0.2260428487     3     4     4     3
 0.0000000004     3     4     4     5
 0.1381169544     3     4     5     2
 0.0828665501     3     4     5     3
 0.0000000006     3     4     5     5
 -0.1601508589     3     4     6     1
 0.0000000001     3     4     6     6
 -0.0000000001     3     5     1     1
 -0.0951021351     3     5     1     6
 0.0000000004     3     5     2     2
 -0.0000000007     3     5     2     3
 -0.1845344978     3     5     2     4
 -0.0517128235     3     5     4     2
 0.0828665501     3     5     4     3
 -0.0000000004     3     5     4     4
 0.0828665501     3     5     5     2
 -0.3124469796     3     5     5     3
 -0.0000000006     3     5     5     4
 -0.0971148963     3     5     6     1
 0.0000000001     3     5     6     6
 -0.0000000006     3     6     1     2
 0.0000000005     3     6     1     3
 0.1568316416     3     6     1     4
 0.0951021351     3     6     1     5
 0.0014074691     3     6     4     1
 0.0008534841     3     6     5     1
 -0.3699478195     3     6     6     3
 -0.0000000001     3     6     6     4
 -0.0000000001     3     6     6     5
 -0.0000000001     4     1     1     2
 0.0000000001     4     1     1     3
 -0.3636142661     4     1     1     4
 -0.0008534841     4     1     2     6
 0.0014074691     4     1     3     6
 -0.0951021351     4     1     6     2
 0.1568316416     4     1     6     3
 -0.0000000008     4     1     6     4
 0.0000000001     4     2     1     1
 0.0971148963     4     2     1     6
 0.0000000005     4     2     2     3
 -0.3124469796     4     2     2     4
 -0.0828665501     4     2     2     5
 0.0000000003     4     2     3     3
 -0.0828665501     4     2     3     4
 -0.0517128235     4     2     3     5
 -0.1845344978     4     2     5     3
 0.0000000007     4     2     5     4
 -0.0000000003     4     2     5     5
 0.0951021351     4     2     6     1
 -0.0000000001     4     2     6     6
 -0.0000000001     4     3     1     1
 -0.1601508589     4     3     1     6
 -0.0000000005     4     3     2     2
 -0.0828665501     4     3     2     4
 0.1381169544     4     3     2     5
 -0.0000000003     4     3     3     2
 -0.2260428487     4     3     3     4
 0.0828665501     4     3     3     5
 0.1845344978     4     3     5     2
 0.0000000004     4     3     5     4
 0.0000000006     4     3     5     5
 -0.1568316416     4     3     6     1
 0.0000000001     4     3     6     6
 0.3636142661     4     4     1     1
 0.0000000008     4     4     1     6
 0.3124469796     4     4     2     2
 0.0828665501     4     4     2     3
 -0.0000000007     4     4     2     5
 0.0828665501     4     4     3     2
 0.2260428487     4     4     3     3
 -0.0000000004     4     4     3     5
 -0.0000000007     4     4     5     2
 -0.0000000004     4     4     5     3
 0.3561377184     4     4     5     5
 0.0000000008     4     4     6     1
 0.3620265652     4     4     6     6
 0.0828665501     4     5     2     2
 -0.1381169544     4     5     2     3
 0.0000000007     4     5     2     4
 0.0517128235     4     5     3     2
 -0.0828665501     4     5     3     3
 0.0000000004     4     5     3     4
 0.0000000003     4     5     5     2
 -0.0000000006     4     5     5     3
 -0.3561377184     4     5     5     4
 -0.0971148963     4     6     1     2
 0.1601508589     4     6     1     3
 -0.0000000008     4     6     1     4
 0.0008534841     4     6     2     1
 -0.0014074691     4     6     3     1
 0.0000000001     4     6     6     2
 -0.0000000001     4     6     6     3
 -0.3620265652     4     6     6     4
 0.0000000001     5     1     1     2
 0.0000000001     5     1     1     3
 -0.3636142661     5     1     1     5
 0.0014074691     5     1     2     6
 0.0008534841     5     1     3     6
 0.1568316416     5     1     6     2
 0.0951021351     5     1     6     3
 0.0000000006     5     1     6     5
 -0.0000000001     5     2     1     1
 -0.1601508589     5     2     1     6
 -0.0000000004     5     2     2     3
 -0.0828665501     5     2     2     4
 -0.2260428487     5     2     2     5
 0.0000000007     5     2     3     3
 0.1381169544     5     2     3     4
 0.0828665501     5     2     3     5
 0.1845344978     5     2     4     3
 -0.0000000007     5     2     4     4
 0.0000000003     5     2     4     5
 -0.1568316416     5     2     6     1
 0.0000000002     5     2     6     6
 -0.0000000001     5     3     1     1
 -0.0971148963     5     3     1     6
 0.0000000004     5     3     2     2
 -0.0517128235     5     3     2     4
 0.0828665501     5     3     2     5
 -0.0000000007     5     3     3     2
 0.0828665501     5     3     3     4
 -0.3124469796     5     3     3     5
 -0.1845344978     5     3     4     2
 -0.0000000004     5     3     4     4
 -0.0000000006     5     3     4     5
 -0.0951021351     5     3     6     1
 0.0000000001     5     3     6     6
 0.0828665501     5     4     2     2
 0.0517128235     5     4     2     3
 0.0000000003     5     4     2     5
 -0.1381169544     5     4     3     2
 -0.0828665501     5     4     3     3
 -0.0000000006     5     4     3     5
 0.0000000007     5     4     4     2
 0.0000000004     5     4     4     3
 -0.3561377184     5     4     4     5
 0.3636142661     5     5     1     1
 -0.0000000006     5     5     1     6
 0.2260428487     5     5     2     2
 -0.0828665501     5     5     2     3
 -0.0000000003     5     5     2     4
 -0.0828665501     5     5     3     2
 0.3124469796     5     5     3     3
 0.0000000006     5     5     3     4
 -0.0000000003     5     5     4     2
 0.0000000006     5     5     4     3
 0.3561377184     5     5     4     4
 -0.0000000006     5     5     6     1
 0.3620265652     5     5     6     6
 0.1601508589     5     6     1     2
 0.0971148963     5     6     1     3
 0.0000000006     5     6     1     5
 -0.0014074691     5     6     2     1
 -0.0008534841     5     6     3     1
 -0.0000000002     5     6     6     2
 -0.0000000001     5     6     6     3
 -0.3620265652     5     6     6     5
 -0.1864318630     6     1     1     6
 0.0000000002     6     1     2     2
 0.0000000006     6     1     2     3
 0.0971148963     6     1     2     4
 -0.1601508589     6     1     2     5
 0.0000000006     6     1     3     2
 -0.0000000005     6     1     3     3
 -0.1601508589     6     1     3     4
 -0.0971148963     6     1     3     5
 0.0951021351     6     1     4     2
 -0.1568316416     6     1     4     3
 0.0000000008     6     1     4     4
 -0.1568316416     6     1     5     2
 -0.0951021351     6     1     5     3
 -0.0000000006     6     1     5     5
 -0.0008534841     6     2     1     4
 0.0014074691     6     2     1     5
 -0.0000000002     6     2     2     1
 -0.3699478195     6     2     2     6
 -0.0000000006     6     2     3     1
 -0.0951021351     6     2     4     1
 0.0000000001     6     2     4     6
 0.1568316416     6     2     5     1
 -0.0000000002     6     2     5     6
 0.0014074691     6     3     1     4
 0.0008534841     6     3     1     5
 -0.0000000006     6     3     2     1
 0.0000000005     6     3     3     1
 -0.3699478195     6     3     3     6
 0.1568316416     6     3     4     1
 -0.0000000001     6     3     4     6
 0.0951021351     6     3     5     1
 -0.0000000001     6     3     5     6
 0.0008534841     6     4     1     2
 -0.0014074691     6     4     1     3
 -0.0971148963     6     4     2     1
 0.0000000001     6     4     2     6
 0.1601508589     6     4     3     1
 -0.0000000001     6     4     3     6
 -0.0000000008     6     4     4     1
 -0.3620265652     6     4     4     6
 -0.0014074691     6     5     1     2
 -0.0008534841     6     5     1     3
 0.1601508589     6     5     2     1
 -0.0000000002     6     5     2     6
 0.0971148963     6     5     3     1
 -0.0000000001     6     5     3     6
 0.0000000006     6     5     5     1
 -0.3620265652     6     5     5     6
 0.1864318630     6     6     1     1
 0.3699478195     6     6     2     2
 -0.0000000001     6     6     2     4
 0.0000000002     6     6     2     5
 0.3699478195     6     6     3     3
 0.0000000001     6     6     3     4
 0.0000000001     6     6     3     5
 -0.0000000001     6     6     4     2
 0.0000000001     6     6     4     3
 0.3620265652     6     6     4     4
 0.0000000002     6     6     5     2
 0.0000000001     6     6     5     3
 0.3620265652     6     6     5     5
0.0 0 0 0 0