&FCI NORB= 13,NELEC= 14,MS2=0,
 ORBSYM=1,1,1,1,1,1,1,1,1,1,1,1,1
 ISYM=1,
&END
 0.2198069097     1     1     2     2
 -0.0002049439     1     1     2     4
 0.0000000001     1     1     2     5
 -0.0031829273     1     1     2    10
 0.5629409553     1     1     3     3
 -0.0000000015     1     1     3     4
 0.0015890369     1     1     3     5
 0.0000000002     1     1     3    10
 0.1297654698     1     1     3    13
 -0.0002049439     1     1     4     2
 -0.0000000015     1     1     4     3
 0.5693330690     1     1     4     4
 0.0000000004     1     1     4     5
 -0.0344544661     1     1     4    10
 -0.0000000005     1     1     4    13
 0.0000000001     1     1     5     2
 0.0015890369     1     1     5     3
 0.0000000004     1     1     5     4
 0.5495672181     1     1     5     5
 0.0000000012     1     1     5    10
 0.0958819009     1     1     5    13
 0.5319859859     1     1     6     6
 0.0000000012     1     1     6     8
 -0.0000000001     1     1     6     9
 0.0021445984     1     1     6    11
 0.1915946873     1     1     6    12
 0.5319859859     1     1     7     7
 -0.0000000001     1     1     7     8
 -0.0000000012     1     1     7     9
 0.1915946873     1     1     7    11
 -0.0021445984     1     1     7    12
 0.0000000012     1     1     8     6
 -0.0000000001     1     1     8     7
 0.5465186755     1     1     8     8
 -0.0000000001     1     1     8    11
 0.0000000009     1     1     8    12
 -0.0000000001     1     1     9     6
 -0.0000000012     1     1     9     7
 0.5465186755     1     1     9     9
 -0.0000000009     1     1     9    11
 -0.0000000001     1     1     9    12
 -0.0031829273     1     1    10     2
 0.0000000002     1     1    10     3
 -0.0344544661     1     1    10     4
 0.0000000012     1     1    10     5
 0.5754485177     1     1    10    10
 0.0000000008     1     1    10    13
 0.0021445984     1     1    11     6
 0.1915946873     1     1    11     7
 -0.0000000001     1     1    11     8
 -0.0000000009     1     1    11     9
 0.5316321677     1     1    11    11
 0.1915946873     1     1    12     6
 -0.0021445984     1     1    12     7
 0.0000000009     1     1    12     8
 -0.0000000001     1     1    12     9
 0.5316321677     1     1    12    12
 0.1297654698     1     1    13     3
 -0.0000000005     1     1    13     4
 0.0958819009     1     1    13     5
 0.0000000008     1     1    13    10
 0.5399494661     1     1    13    13
 -0.2198069097     1     2     2     1
 -0.0001625489     1     2     2     3
 -0.0030929302     1     2     2     5
 -0.0018520694     1     2     2    13
 0.3448358193     1     2     3     4
 -0.0430521017     1     2     3    10
 0.0002049439     1     2     4     1
 0.3448519200     1     2     4     3
 -0.0811692648     1     2     4     5
 0.1192817331     1     2     4    13
 -0.0000000001     1     2     5     1
 -0.0811734102     1     2     5     4
 -0.2974829219     1     2     5    10
 -0.3047399989     1     2     6     8
 0.0256762947     1     2     6     9
 0.0256762948     1     2     7     8
 0.3047399989     1     2     7     9
 -0.3046862009     1     2     8     6
 0.0256717620     1     2     8     7
 0.0154390679     1     2     8    11
 -0.2115110501     1     2     8    12
 0.0256717620     1     2     9     6
 0.3046862009     1     2     9     7
 0.2115110501     1     2     9    11
 0.0154390679     1     2     9    12
 0.0031829273     1     2    10     1
 -0.0430450695     1     2    10     3
 -0.2973897081     1     2    10     5
 -0.1910517063     1     2    10    13
 0.0154430305     1     2    11     8
 0.2115653371     1     2    11     9
 -0.2115653371     1     2    12     8
 0.0154430305     1     2    12     9
 0.1193090048     1     2    13     4
 -0.1911209038     1     2    13    10
 0.0001625489     1     3     2     2
 -0.0000090611     1     3     2     4
 -0.0000049381     1     3     2    10
 -0.5629409553     1     3     3     1
 -0.0023074272     1     3     3     5
 -0.0022362113     1     3     3    13
 0.0000000015     1     3     4     1
 -0.3448519200     1     3     4     2
 -0.0004312603     1     3     4     4
 -0.0029736164     1     3     4    10
 -0.0015890369     1     3     5     1
 -0.0187823780     1     3     5     5
 -0.0144033295     1     3     5    13
 -0.0178826356     1     3     6     6
 -0.0002464952     1     3     6    11
 -0.0220214493     1     3     6    12
 -0.0178826356     1     3     7     7
 -0.0220214493     1     3     7    11
 0.0002464952     1     3     7    12
 -0.0180818275     1     3     8     8
 -0.0180818275     1     3     9     9
 -0.0000000002     1     3    10     1
 0.0430450695     1     3    10     2
 -0.0020504819     1     3    10     4
 -0.0190497526     1     3    10    10
 -0.0001599429     1     3    11     6
 -0.0142890212     1     3    11     7
 -0.0193610812     1     3    11    11
 -0.0142890212     1     3    12     6
 0.0001599429     1     3    12     7
 -0.0193610812     1     3    12    12
 -0.1297654698     1     3    13     1
 -0.0097101861     1     3    13     5
 -0.0081120447     1     3    13    13
 0.0002049439     1     4     2     1
 0.0000090611     1     4     2     3
 0.0000063531     1     4     2     5
 -0.0000155536     1     4     2    13
 0.0000000015     1     4     3     1
 -0.3448358193     1     4     3     2
 -0.0008950673     1     4     3    10
 -0.5693330690     1     4     4     1
 0.0004312603     1     4     4     3
 0.0004695555     1     4     4     5
 0.0008568559     1     4     4    13
 -0.0000000004     1     4     5     1
 0.0811734102     1     4     5     2
 0.0186627408     1     4     5    10
 0.0177825458     1     4     6     8
 -0.0014982932     1     4     6     9
 -0.0014982932     1     4     7     8
 -0.0177825458     1     4     7     9
 0.0172948649     1     4     8     6
 -0.0014572030     1     4     8     7
 -0.0016621354     1     4     8    11
 0.0227708044     1     4     8    12
 -0.0014572030     1     4     9     6
 -0.0172948649     1     4     9     7
 -0.0227708044     1     4     9    11
 -0.0016621354     1     4     9    12
 0.0344544661     1     4    10     1
 0.0020504819     1     4    10     3
 0.0176555496     1     4    10     5
 0.0158443409     1     4    10    13
 -0.0011768583     1     4    11     8
 -0.0161226412     1     4    11     9
 0.0161226412     1     4    12     8
 -0.0011768583     1     4    12     9
 0.0000000005     1     4    13     1
 -0.1193090048     1     4    13     2
 0.0113336609     1     4    13    10
 -0.0000000001     1     5     2     1
 0.0030929302     1     5     2     2
 -0.0000063531     1     5     2     4
 -0.0000925786     1     5     2    10
 -0.0015890369     1     5     3     1
 0.0023074272     1     5     3     3
 -0.0044774363     1     5     3    13
 -0.0000000004     1     5     4     1
 0.0811692648     1     5     4     2
 -0.0004695555     1     5     4     4
 0.0006545092     1     5     4    10
 -0.5495672181     1     5     5     1
 0.0187823780     1     5     5     3
 0.0077747016     1     5     5    13
 0.0033566588     1     5     6     6
 0.0000233503     1     5     6    11
 0.0020860752     1     5     6    12
 0.0033566588     1     5     7     7
 0.0020860752     1     5     7    11
 -0.0000233503     1     5     7    12
 0.0033336535     1     5     8     8
 0.0033336535     1     5     9     9
 -0.0000000012     1     5    10     1
 0.2973897081     1     5    10     2
 -0.0176555496     1     5    10     4
 0.0073833129     1     5    10    10
 0.0000270030     1     5    11     6
 0.0024123983     1     5    11     7
 0.0046888645     1     5    11    11
 0.0024123983     1     5    12     6
 -0.0000270030     1     5    12     7
 0.0046888645     1     5    12    12
 -0.0958819009     1     5    13     1
 0.0097101861     1     5    13     3
 0.0129764820     1     5    13    13
 -0.0000477609     1     6     2     8
 0.0000040242     1     6     2     9
 -0.0000842896     1     6     3    11
 -0.0075302844     1     6     3    12
 0.0002424452     1     6     4     8
 -0.0000204276     1     6     4     9
 -0.0000046412     1     6     5    11
 -0.0004146399     1     6     5    12
 -0.5319859859     1     6     6     1
 0.0178826356     1     6     6     3
 -0.0033566588     1     6     6     5
 0.0074646644     1     6     6    13
 -0.0000000012     1     6     8     1
 0.3046862009     1     6     8     2
 -0.0172948649     1     6     8     4
 0.0041120499     1     6     8    10
 0.0000000001     1     6     9     1
 -0.0256717620     1     6     9     2
 0.0014572030     1     6     9     4
 -0.0003464665     1     6     9    10
 0.0000342804     1     6    10     8
 -0.0000028883     1     6    10     9
 -0.0021445984     1     6    11     1
 0.0001599429     1     6    11     3
 -0.0000270030     1     6    11     5
 0.0001463653     1     6    11    13
 -0.1915946873     1     6    12     1
 0.0142890212     1     6    12     3
 -0.0024123983     1     6    12     5
 0.0130760209     1     6    12    13
 0.0000208728     1     6    13    11
 0.0018647422     1     6    13    12
 0.0000040242     1     7     2     8
 0.0000477609     1     7     2     9
 -0.0075302844     1     7     3    11
 0.0000842896     1     7     3    12
 -0.0000204276     1     7     4     8
 -0.0002424452     1     7     4     9
 -0.0004146399     1     7     5    11
 0.0000046412     1     7     5    12
 -0.5319859859     1     7     7     1
 0.0178826356     1     7     7     3
 -0.0033566588     1     7     7     5
 0.0074646644     1     7     7    13
 0.0000000001     1     7     8     1
 -0.0256717620     1     7     8     2
 0.0014572030     1     7     8     4
 -0.0003464665     1     7     8    10
 0.0000000012     1     7     9     1
 -0.3046862009     1     7     9     2
 0.0172948649     1     7     9     4
 -0.0041120499     1     7     9    10
 -0.0000028883     1     7    10     8
 -0.0000342803     1     7    10     9
 -0.1915946873     1     7    11     1
 0.0142890212     1     7    11     3
 -0.0024123983     1     7    11     5
 0.0130760209     1     7    11    13
 0.0021445984     1     7    12     1
 -0.0001599429     1     7    12     3
 0.0000270030     1     7    12     5
 -0.0001463653     1     7    12    13
 0.0018647422     1     7    13    11
 -0.0000208728     1     7    13    12
 0.0000477609     1     8     2     6
 -0.0000040242     1     8     2     7
 -0.0000038890     1     8     2    11
 0.0000532776     1     8     2    12
 -0.0002424452     1     8     4     6
 0.0000204276     1     8     4     7
 -0.0004750343     1     8     4    11
 0.0065078407     1     8     4    12
 -0.0000000012     1     8     6     1
 0.3047399989     1     8     6     2
 -0.0177825458     1     8     6     4
 0.0042625189     1     8     6    10
 0.0000000001     1     8     7     1
 -0.0256762948     1     8     7     2
 0.0014982932     1     8     7     4
 -0.0003591445     1     8     7    10
 -0.5465186755     1     8     8     1
 0.0180818275     1     8     8     3
 -0.0033336535     1     8     8     5
 0.0091096715     1     8     8    13
 -0.0000342804     1     8    10     6
 0.0000028883     1     8    10     7
 0.0000762958     1     8    10    11
 -0.0010452319     1     8    10    12
 0.0000000001     1     8    11     1
 -0.0154430305     1     8    11     2
 0.0011768583     1     8    11     4
 -0.0002200560     1     8    11    10
 -0.0000000009     1     8    12     1
 0.2115653371     1     8    12     2
 -0.0161226412     1     8    12     4
 0.0030147082     1     8    12    10
 -0.0000040242     1     9     2     6
 -0.0000477609     1     9     2     7
 -0.0000532776     1     9     2    11
 -0.0000038890     1     9     2    12
 0.0000204276     1     9     4     6
 0.0002424452     1     9     4     7
 -0.0065078407     1     9     4    11
 -0.0004750343     1     9     4    12
 0.0000000001     1     9     6     1
 -0.0256762947     1     9     6     2
 0.0014982932     1     9     6     4
 -0.0003591445     1     9     6    10
 0.0000000012     1     9     7     1
 -0.3047399989     1     9     7     2
 0.0177825458     1     9     7     4
 -0.0042625189     1     9     7    10
 -0.5465186755     1     9     9     1
 0.0180818275     1     9     9     3
 -0.0033336535     1     9     9     5
 0.0091096715     1     9     9    13
 0.0000028883     1     9    10     6
 0.0000342803     1     9    10     7
 0.0010452319     1     9    10    11
 0.0000762958     1     9    10    12
 0.0000000009     1     9    11     1
 -0.2115653371     1     9    11     2
 0.0161226412     1     9    11     4
 -0.0030147082     1     9    11    10
 0.0000000001     1     9    12     1
 -0.0154430305     1     9    12     2
 0.0011768583     1     9    12     4
 -0.0002200560     1     9    12    10
 0.0031829273     1    10     2     1
 0.0000049381     1    10     2     3
 0.0000925786     1    10     2     5
 0.0000713845     1    10     2    13
 -0.0000000002     1    10     3     1
 0.0430521017     1    10     3     2
 0.0008950673     1    10     3     4
 0.0344544661     1    10     4     1
 0.0029736164     1    10     4     3
 -0.0006545092     1    10     4     5
 0.0043721480     1    10     4    13
 -0.0000000012     1    10     5     1
 0.2974829219     1    10     5     2
 -0.0186627408     1    10     5     4
 -0.0042625189     1    10     6     8
 0.0003591445     1    10     6     9
 0.0003591445     1    10     7     8
 0.0042625189     1    10     7     9
 -0.0041120499     1    10     8     6
 0.0003464665     1    10     8     7
 0.0002984713     1    10     8    11
 -0.0040889760     1    10     8    12
 0.0003464665     1    10     9     6
 0.0041120499     1    10     9     7
 0.0040889760     1    10     9    11
 0.0002984713     1    10     9    12
 -0.5754485177     1    10    10     1
 0.0190497526     1    10    10     3
 -0.0073833129     1    10    10     5
 0.0063985660     1    10    10    13
 0.0002200560     1    10    11     8
 0.0030147082     1    10    11     9
 -0.0030147082     1    10    12     8
 0.0002200560     1    10    12     9
 -0.0000000008     1    10    13     1
 0.1911209038     1    10    13     2
 -0.0113336609     1    10    13     4
 0.0000038890     1    11     2     8
 0.0000532776     1    11     2     9
 0.0000842896     1    11     3     6
 0.0075302844     1    11     3     7
 0.0004750343     1    11     4     8
 0.0065078407     1    11     4     9
 0.0000046412     1    11     5     6
 0.0004146399     1    11     5     7
 -0.0021445984     1    11     6     1
 0.0002464952     1    11     6     3
 -0.0000233503     1    11     6     5
 0.0001268823     1    11     6    13
 -0.1915946873     1    11     7     1
 0.0220214493     1    11     7     3
 -0.0020860752     1    11     7     5
 0.0113354438     1    11     7    13
 0.0000000001     1    11     8     1
 -0.0154390679     1    11     8     2
 0.0016621354     1    11     8     4
 -0.0002984713     1    11     8    10
 0.0000000009     1    11     9     1
 -0.2115110501     1    11     9     2
 0.0227708044     1    11     9     4
 -0.0040889760     1    11     9    10
 -0.0000762958     1    11    10     8
 -0.0010452319     1    11    10     9
 -0.5316321677     1    11    11     1
 0.0193610812     1    11    11     3
 -0.0046888645     1    11    11     5
 0.0160736941     1    11    11    13
 -0.0000208728     1    11    13     6
 -0.0018647422     1    11    13     7
 -0.0000532776     1    12     2     8
 0.0000038890     1    12     2     9
 0.0075302844     1    12     3     6
 -0.0000842896     1    12     3     7
 -0.0065078407     1    12     4     8
 0.0004750343     1    12     4     9
 0.0004146399     1    12     5     6
 -0.0000046412     1    12     5     7
 -0.1915946873     1    12     6     1
 0.0220214493     1    12     6     3
 -0.0020860752     1    12     6     5
 0.0113354438     1    12     6    13
 0.0021445984     1    12     7     1
 -0.0002464952     1    12     7     3
 0.0000233503     1    12     7     5
 -0.0001268823     1    12     7    13
 -0.0000000009     1    12     8     1
 0.2115110501     1    12     8     2
 -0.0227708044     1    12     8     4
 0.0040889760     1    12     8    10
 0.0000000001     1    12     9     1
 -0.0154390679     1    12     9     2
 0.0016621354     1    12     9     4
 -0.0002984713     1    12     9    10
 0.0010452319     1    12    10     8
 -0.0000762958     1    12    10     9
 -0.5316321677     1    12    12     1
 0.0193610812     1    12    12     3
 -0.0046888645     1    12    12     5
 0.0160736941     1    12    12    13
 -0.0018647422     1    12    13     6
 0.0000208728     1    12    13     7
 0.0018520694     1    13     2     2
 0.0000155536     1    13     2     4
 -0.0000713845     1    13     2    10
 -0.1297654698     1    13     3     1
 0.0022362113     1    13     3     3
 0.0044774363     1    13     3     5
 0.0000000005     1    13     4     1
 -0.1192817331     1    13     4     2
 -0.0008568559     1    13     4     4
 -0.0043721480     1    13     4    10
 -0.0958819009     1    13     5     1
 0.0144033295     1    13     5     3
 -0.0077747016     1    13     5     5
 -0.0074646644     1    13     6     6
 -0.0001268823     1    13     6    11
 -0.0113354438     1    13     6    12
 -0.0074646644     1    13     7     7
 -0.0113354438     1    13     7    11
 0.0001268823     1    13     7    12
 -0.0091096715     1    13     8     8
 -0.0091096715     1    13     9     9
 -0.0000000008     1    13    10     1
 0.1910517063     1    13    10     2
 -0.0158443409     1    13    10     4
 -0.0063985660     1    13    10    10
 -0.0001463653     1    13    11     6
 -0.0130760209     1    13    11     7
 -0.0160736941     1    13    11    11
 -0.0130760209     1    13    12     6
 0.0001463653     1    13    12     7
 -0.0160736941     1    13    12    12
 -0.5399494661     1    13    13     1
 0.0081120447     1    13    13     3
 -0.0129764820     1    13    13     5
 -0.2198069097     2     1     1     2
 0.0002049439     2     1     1     4
 -0.0000000001     2     1     1     5
 0.0031829273     2     1     1    10
 -0.0001625489     2     1     3     2
 0.3448519200     2     1     3     4
 -0.0430450695     2     1     3    10
 0.3448358193     2     1     4     3
 -0.0811734102     2     1     4     5
 0.1193090048     2     1     4    13
 -0.0030929302     2     1     5     2
 -0.0811692648     2     1     5     4
 -0.2973897081     2     1     5    10
 -0.3046862009     2     1     6     8
 0.0256717620     2     1     6     9
 0.0256717620     2     1     7     8
 0.3046862009     2     1     7     9
 -0.3047399989     2     1     8     6
 0.0256762948     2     1     8     7
 0.0154430305     2     1     8    11
 -0.2115653371     2     1     8    12
 0.0256762947     2     1     9     6
 0.3047399989     2     1     9     7
 0.2115653371     2     1     9    11
 0.0154430305     2     1     9    12
 -0.0430521017     2     1    10     3
 -0.2974829219     2     1    10     5
 -0.1911209038     2     1    10    13
 0.0154390679     2     1    11     8
 0.2115110501     2     1    11     9
 -0.2115110501     2     1    12     8
 0.0154390679     2     1    12     9
 -0.0018520694     2     1    13     2
 0.1192817331     2     1    13     4
 -0.1910517063     2     1    13    10
 0.2198069097     2     2     1     1
 0.0001625489     2     2     1     3
 0.0030929302     2     2     1     5
 0.0018520694     2     2     1    13
 0.0001625489     2     2     3     1
 0.5629394760     2     2     3     3
 0.0000000015     2     2     3     4
 0.0015982902     2     2     3     5
 -0.0000000002     2     2     3    10
 0.1298031074     2     2     3    13
 0.0000000015     2     2     4     3
 0.5693331816     2     2     4     4
 -0.0000000004     2     2     4     5
 -0.0344670042     2     2     4    10
 0.0000000005     2     2     4    13
 0.0030929302     2     2     5     1
 0.0015982902     2     2     5     3
 -0.0000000004     2     2     5     4
 0.5496518117     2     2     5     5
 -0.0000000012     2     2     5    10
 0.0959440433     2     2     5    13
 0.5320231277     2     2     6     6
 -0.0000000012     2     2     6     8
 0.0000000001     2     2     6     9
 0.0021450947     2     2     6    11
 0.1916390187     2     2     6    12
 0.5320231277     2     2     7     7
 0.0000000001     2     2     7     8
 0.0000000012     2     2     7     9
 0.1916390187     2     2     7    11
 -0.0021450947     2     2     7    12
 -0.0000000012     2     2     8     6
 0.0000000001     2     2     8     7
 0.5464693206     2     2     8     8
 0.0000000001     2     2     8    11
 -0.0000000009     2     2     8    12
 0.0000000001     2     2     9     6
 0.0000000012     2     2     9     7
 0.5464693206     2     2     9     9
 0.0000000009     2     2     9    11
 0.0000000001     2     2     9    12
 -0.0000000002     2     2    10     3
 -0.0344670042     2     2    10     4
 -0.0000000012     2     2    10     5
 0.5753517759     2     2    10    10
 -0.0000000008     2     2    10    13
 0.0021450947     2     2    11     6
 0.1916390187     2     2    11     7
 0.0000000001     2     2    11     8
 0.0000000009     2     2    11     9
 0.5316830040     2     2    11    11
 0.1916390187     2     2    12     6
 -0.0021450947     2     2    12     7
 -0.0000000009     2     2    12     8
 0.0000000001     2     2    12     9
 0.5316830040     2     2    12    12
 0.0018520694     2     2    13     1
 0.1298031074     2     2    13     3
 0.0000000005     2     2    13     4
 0.0959440433     2     2    13     5
 -0.0000000008     2     2    13    10
 0.5400133279     2     2    13    13
 -0.0001625489     2     3     1     2
 0.0000090611     2     3     1     4
 0.0000049381     2     3     1    10
 -0.5629394760     2     3     3     2
 0.0001770748     2     3     3     4
 0.0026966013     2     3     3    10
 -0.3448358193     2     3     4     1
 -0.0000000015     2     3     4     2
 0.0032015567     2     3     4     5
 0.0020309191     2     3     4    13
 -0.0015982902     2     3     5     2
 0.0022827892     2     3     5     4
 0.0192520637     2     3     5    10
 0.0180939160     2     3     6     8
 -0.0015245282     2     3     6     9
 -0.0015245282     2     3     7     8
 -0.0180939160     2     3     7     9
 0.0167522274     2     3     8     6
 -0.0014114824     2     3     8     7
 -0.0015889958     2     3     8    11
 0.0217688123     2     3     8    12
 -0.0014114824     2     3     9     6
 -0.0167522274     2     3     9     7
 -0.0217688123     2     3     9    11
 -0.0015889958     2     3     9    12
 0.0430521017     2     3    10     1
 0.0000000002     2     3    10     2
 0.0168566044     2     3    10     5
 0.0139359256     2     3    10    13
 -0.0011250998     2     3    11     8
 -0.0154135635     2     3    11     9
 0.0154135635     2     3    12     8
 -0.0011250998     2     3    12     9
 -0.1298031074     2     3    13     2
 0.0015980083     2     3    13     4
 0.0105476132     2     3    13    10
 -0.0002049439     2     4     1     1
 -0.0000090611     2     4     1     3
 -0.0000063531     2     4     1     5
 0.0000155536     2     4     1    13
 -0.3448519200     2     4     3     1
 -0.0000000015     2     4     3     2
 -0.0001770748     2     4     3     3
 0.0009332599     2     4     3     5
 0.0005308069     2     4     3    13
 -0.5693331816     2     4     4     2
 -0.0002549162     2     4     4    10
 0.0811692648     2     4     5     1
 0.0000000004     2     4     5     2
 -0.0022827892     2     4     5     3
 -0.0182192016     2     4     5     5
 -0.0148917897     2     4     5    13
 -0.0179152795     2     4     6     6
 -0.0002453072     2     4     6    11
 -0.0219153170     2     4     6    12
 -0.0179152795     2     4     7     7
 -0.0219153170     2     4     7    11
 0.0002453072     2     4     7    12
 -0.0190745367     2     4     8     8
 -0.0190745367     2     4     9     9
 0.0344670042     2     4    10     2
 -0.0207588051     2     4    10    10
 -0.0001658995     2     4    11     6
 -0.0148211659     2     4    11     7
 -0.0204575782     2     4    11    11
 -0.0148211659     2     4    12     6
 0.0001658995     2     4    12     7
 -0.0204575782     2     4    12    12
 -0.1192817331     2     4    13     1
 -0.0000000005     2     4    13     2
 -0.0015980083     2     4    13     3
 -0.0098635204     2     4    13     5
 -0.0100309573     2     4    13    13
 0.0000000001     2     5     1     1
 -0.0030929302     2     5     1     2
 0.0000063531     2     5     1     4
 0.0000925786     2     5     1    10
 -0.0015982902     2     5     3     2
 -0.0009332599     2     5     3     4
 0.0021694611     2     5     3    10
 0.0811734102     2     5     4     1
 0.0000000004     2     5     4     2
 -0.0032015567     2     5     4     3
 -0.0047643811     2     5     4    13
 -0.5496518117     2     5     5     2
 0.0182192016     2     5     5     4
 -0.0005554294     2     5     5    10
 -0.0001962230     2     5     6     8
 0.0000165330     2     5     6     9
 0.0000165330     2     5     7     8
 0.0001962230     2     5     7     9
 -0.0004410920     2     5     8     6
 0.0000371648     2     5     8     7
 0.0001570281     2     5     8    11
 -0.0021512438     2     5     8    12
 0.0000371648     2     5     9     6
 0.0004410920     2     5     9     7
 0.0021512438     2     5     9    11
 0.0001570281     2     5     9    12
 0.2974829219     2     5    10     1
 0.0000000012     2     5    10     2
 -0.0168566044     2     5    10     3
 -0.0108428717     2     5    10    13
 0.0001592351     2     5    11     8
 0.0021814780     2     5    11     9
 -0.0021814780     2     5    12     8
 0.0001592351     2     5    12     9
 -0.0959440433     2     5    13     2
 0.0098635204     2     5    13     4
 -0.0038378132     2     5    13    10
 0.0000477609     2     6     1     8
 -0.0000040242     2     6     1     9
 0.0012650933     2     6     3     8
 -0.0001065922     2     6     3     9
 -0.0000753460     2     6     4    11
 -0.0067312784     2     6     4    12
 0.0002699962     2     6     5     8
 -0.0000227489     2     6     5     9
 -0.5320231277     2     6     6     2
 0.0179152795     2     6     6     4
 -0.0009286088     2     6     6    10
 0.3047399989     2     6     8     1
 0.0000000012     2     6     8     2
 -0.0167522274     2     6     8     3
 0.0004410920     2     6     8     5
 -0.0100712306     2     6     8    13
 -0.0256762947     2     6     9     1
 -0.0000000001     2     6     9     2
 0.0014114824     2     6     9     3
 -0.0000371648     2     6     9     5
 0.0008485656     2     6     9    13
 0.0000111579     2     6    10    11
 0.0009968267     2     6    10    12
 -0.0021450947     2     6    11     2
 0.0001658995     2     6    11     4
 -0.0000289626     2     6    11    10
 -0.1916390187     2     6    12     2
 0.0148211659     2     6    12     4
 -0.0025874644     2     6    12    10
 -0.0005274663     2     6    13     8
 0.0000444424     2     6    13     9
 -0.0000040242     2     7     1     8
 -0.0000477609     2     7     1     9
 -0.0001065922     2     7     3     8
 -0.0012650933     2     7     3     9
 -0.0067312784     2     7     4    11
 0.0000753460     2     7     4    12
 -0.0000227489     2     7     5     8
 -0.0002699962     2     7     5     9
 -0.5320231277     2     7     7     2
 0.0179152795     2     7     7     4
 -0.0009286088     2     7     7    10
 -0.0256762948     2     7     8     1
 -0.0000000001     2     7     8     2
 0.0014114824     2     7     8     3
 -0.0000371648     2     7     8     5
 0.0008485656     2     7     8    13
 -0.3047399989     2     7     9     1
 -0.0000000012     2     7     9     2
 0.0167522274     2     7     9     3
 -0.0004410920     2     7     9     5
 0.0100712306     2     7     9    13
 0.0009968267     2     7    10    11
 -0.0000111579     2     7    10    12
 -0.1916390187     2     7    11     2
 0.0148211659     2     7    11     4
 -0.0025874644     2     7    11    10
 0.0021450947     2     7    12     2
 -0.0001658995     2     7    12     4
 0.0000289626     2     7    12    10
 0.0000444424     2     7    13     8
 0.0005274663     2     7    13     9
 -0.0000477609     2     8     1     6
 0.0000040242     2     8     1     7
 0.0000038890     2     8     1    11
 -0.0000532776     2     8     1    12
 -0.0012650933     2     8     3     6
 0.0001065922     2     8     3     7
 -0.0004527797     2     8     3    11
 0.0062029587     2     8     3    12
 -0.0002699962     2     8     5     6
 0.0000227489     2     8     5     7
 -0.0000065338     2     8     5    11
 0.0000895117     2     8     5    12
 0.3046862009     2     8     6     1
 0.0000000012     2     8     6     2
 -0.0180939160     2     8     6     3
 0.0001962230     2     8     6     5
 -0.0099439825     2     8     6    13
 -0.0256717620     2     8     7     1
 -0.0000000001     2     8     7     2
 0.0015245282     2     8     7     3
 -0.0000165330     2     8     7     5
 0.0008378442     2     8     7    13
 -0.5464693206     2     8     8     2
 0.0190745367     2     8     8     4
 -0.0017570207     2     8     8    10
 -0.0154390679     2     8    11     1
 -0.0000000001     2     8    11     2
 0.0011250998     2     8    11     3
 -0.0001592351     2     8    11     5
 0.0010138250     2     8    11    13
 0.2115110501     2     8    12     1
 0.0000000009     2     8    12     2
 -0.0154135635     2     8    12     3
 0.0021814780     2     8    12     5
 -0.0138891272     2     8    12    13
 0.0005274663     2     8    13     6
 -0.0000444424     2     8    13     7
 0.0000893870     2     8    13    11
 -0.0012245787     2     8    13    12
 0.0000040242     2     9     1     6
 0.0000477609     2     9     1     7
 0.0000532776     2     9     1    11