&FCI NORB= 19,NELEC= 14,MS2=0,
 ORBSYM=1,1,1,1,1,1,1,1,1,1,1,1,1,1,1,1,1,1,1
 ISYM=1,
&END
 0.1934287527     1     1     2     2
 -0.0001602634     1     1     2     4
 -0.0024696775     1     1     2    10
 0.0020511606     1     1     2    14
 -0.0018465006     1     1     2    18
 0.5529930696     1     1     3     3
 -0.0000000001     1     1     3     4
 0.0020316584     1     1     3     5
 0.0922774268     1     1     3    11
 -0.1353288034     1     1     3    17
 0.0094938393     1     1     3    19
 -0.0001602634     1     1     4     2
 -0.0000000001     1     1     4     3
 0.5588224464     1     1     4     4
 -0.0252044810     1     1     4    10
 -0.1234707630     1     1     4    14
 -0.1051957356     1     1     4    18
 0.0020316584     1     1     5     3
 0.5173362656     1     1     5     5
 0.0000000001     1     1     5    10
 0.1548053210     1     1     5    11
 0.1195576209     1     1     5    17
 0.0242495202     1     1     5    19
 0.5224529008     1     1     6     6
 0.0000000001     1     1     6     8
 -0.2038285441     1     1     6    12
 -0.0024755416     1     1     6    13
 0.0000000001     1     1     6    16
 0.5224529008     1     1     7     7
 -0.0000000001     1     1     7     9
 0.0024755416     1     1     7    12
 -0.2038285441     1     1     7    13
 0.0000000001     1     1     7    15
 0.0000000001     1     1     8     6
 0.5318495391     1     1     8     8
 -0.0000000001     1     1     8    12
 -0.0554105562     1     1     8    15
 0.1978844008     1     1     8    16
 -0.0000000001     1     1     9     7
 0.5318495391     1     1     9     9
 0.0000000001     1     1     9    13
 -0.1978844008     1     1     9    15
 -0.0554105562     1     1     9    16
 -0.0024696775     1     1    10     2
 -0.0252044810     1     1    10     4
 0.0000000001     1     1    10     5
 0.5533327552     1     1    10    10
 0.0000000001     1     1    10    11
 -0.1488019096     1     1    10    14
 0.1375653809     1     1    10    18
 0.0922774268     1     1    11     3
 0.1548053210     1     1    11     5
 0.0000000001     1     1    11    10
 0.5419978221     1     1    11    11
 0.0272754822     1     1    11    17
 0.0000000001     1     1    11    18
 0.0010398372     1     1    11    19
 -0.2038285441     1     1    12     6
 0.0024755416     1     1    12     7
 -0.0000000001     1     1    12     8
 0.5160713904     1     1    12    12
 -0.0000000001     1     1    12    16
 -0.0024755416     1     1    13     6
 -0.2038285441     1     1    13     7
 0.0000000001     1     1    13     9
 0.5160713904     1     1    13    13
 -0.0000000001     1     1    13    15
 0.0020511606     1     1    14     2
 -0.1234707630     1     1    14     4
 -0.1488019096     1     1    14    10
 0.4689126917     1     1    14    14
 -0.0000000001     1     1    14    17
 -0.0265357020     1     1    14    18
 0.0000000001     1     1    15     7
 -0.0554105562     1     1    15     8
 -0.1978844008     1     1    15     9
 -0.0000000001     1     1    15    13
 0.5090234380     1     1    15    15
 0.0000000001     1     1    16     6
 0.1978844008     1     1    16     8
 -0.0554105562     1     1    16     9
 -0.0000000001     1     1    16    12
 0.5090234380     1     1    16    16
 -0.1353288034     1     1    17     3
 0.1195576209     1     1    17     5
 0.0272754822     1     1    17    11
 -0.0000000001     1     1    17    14
 0.4537882920     1     1    17    17
 -0.0001366802     1     1    17    19
 -0.0018465006     1     1    18     2
 -0.1051957356     1     1    18     4
 0.1375653809     1     1    18    10
 0.0000000001     1     1    18    11
 -0.0265357020     1     1    18    14
 0.4920956741     1     1    18    18
 0.0094938393     1     1    19     3
 0.0242495202     1     1    19     5
 0.0010398372     1     1    19    11
 -0.0001366802     1     1    19    17
 0.4818516488     1     1    19    19
 -0.1934287527     1     2     2     1
 -0.0000559658     1     2     2     3
 -0.0023292047     1     2     2     5
 -0.0024039373     1     2     2    11
 -0.0015114051     1     2     2    17
 -0.0003031726     1     2     2    19
 0.3622127728     1     2     3     4
 -0.0259172427     1     2     3    10
 -0.1045924389     1     2     3    14
 -0.1117057721     1     2     3    18
 0.0001602634     1     2     4     1
 0.3622129232     1     2     4     3
 -0.0560923939     1     2     4     5
 0.0898412247     1     2     4    11
 -0.1415596926     1     2     4    17
 0.0017380003     1     2     4    19
 -0.0560969997     1     2     5     4
 -0.3277880579     1     2     5    10
 0.1443882710     1     2     5    14
 -0.0973979646     1     2     5    18
 -0.0000000001     1     2     6     7
 -0.3376516638     1     2     6     8
 0.0038543666     1     2     6     9
 0.0497331766     1     2     6    15
 -0.1857491688     1     2     6    16
 -0.0000000001     1     2     7     6
 0.0038543666     1     2     7     8
 0.3376516638     1     2     7     9
 -0.1857491688     1     2     7    15
 -0.0497331766     1     2     7    16
 -0.3376218187     1     2     8     6
 0.0038540259     1     2     8     7
 -0.0000000001     1     2     8     9
 0.2094630372     1     2     8    12
 0.0001528867     1     2     8    13
 0.0038540259     1     2     9     6
 0.3376218187     1     2     9     7
 -0.0000000001     1     2     9     8
 0.0001528867     1     2     9    12
 -0.2094630372     1     2     9    13
 0.0024696775     1     2    10     1
 -0.0259149444     1     2    10     3
 -0.3277285257     1     2    10     5
 -0.2242872691     1     2    10    11
 -0.0880208228     1     2    10    17
 0.0121776117     1     2    10    19
 0.0898365038     1     2    11     4
 -0.2243493296     1     2    11    10
 0.1056375402     1     2    11    14
 -0.2620386961     1     2    11    18
 0.2094967525     1     2    12     8
 0.0001529113     1     2    12     9
 -0.0881356618     1     2    12    15
 0.3138711302     1     2    12    16
 0.0001529113     1     2    13     8
 -0.2094967525     1     2    13     9
 0.3138711302     1     2    13    15
 0.0881356618     1     2    13    16
 -0.0020511606     1     2    14     1
 -0.1045942963     1     2    14     3
 0.1443397174     1     2    14     5
 0.1055870071     1     2    14    11
 0.2939124791     1     2    14    17
 0.0188287042     1     2    14    19
 0.0497239903     1     2    15     6
 -0.1857148590     1     2    15     7
 -0.0881247993     1     2    15    12
 0.3138324465     1     2    15    13
 -0.1857148590     1     2    16     6
 -0.0497239903     1     2    16     7
 0.3138324465     1     2    16    12
 0.0881247993     1     2    16    13
 -0.1415627304     1     2    17     4
 -0.0880601323     1     2    17    10
 0.2939445444     1     2    17    14
 0.0417253456     1     2    17    18
 0.0018465006     1     2    18     1
 -0.1117041951     1     2    18     3
 -0.0973542937     1     2    18     5
 -0.2619931425     1     2    18    11
 0.0417542061     1     2    18    17
 -0.0785751178     1     2    18    19
 0.0017370952     1     2    19     4
 0.0121669303     1     2    19    10
 0.0188377018     1     2    19    14
 -0.0785828771     1     2    19    18
 0.0000559658     1     3     2     2
 -0.0000001504     1     3     2     4
 -0.0000022983     1     3     2    10
 0.0000018574     1     3     2    14
 -0.0000015770     1     3     2    18
 -0.5529930696     1     3     3     1
 -0.0014712226     1     3     3     5
 -0.0020348230     1     3     3    11
 -0.0005713049     1     3     3    17
 -0.0002261250     1     3     3    19
 0.0000000001     1     3     4     1
 -0.3622129232     1     3     4     2
 -0.0001828452     1     3     4     4
 -0.0023207463     1     3     4    10
 0.0023662390     1     3     4    14
 -0.0012674459     1     3     4    18
 -0.0020316584     1     3     5     1
 -0.0173078191     1     3     5     5
 -0.0193988519     1     3     5    11
 -0.0122810004     1     3     5    17
 -0.0011794688     1     3     5    19
 -0.0182539235     1     3     6     6
 0.0228440847     1     3     6    12
 0.0002774463     1     3     6    13
 -0.0182539235     1     3     7     7
 -0.0002774463     1     3     7    12
 0.0228440847     1     3     7    13
 -0.0187466812     1     3     8     8
 0.0061351793     1     3     8    15
 -0.0219101984     1     3     8    16
 -0.0187466812     1     3     9     9
 0.0219101984     1     3     9    15
 0.0061351793     1     3     9    16
 0.0259149444     1     3    10     2
 -0.0013895243     1     3    10     4
 -0.0196720333     1     3    10    10
 0.0171981080     1     3    10    14
 -0.0150588117     1     3    10    18
 -0.0922774268     1     3    11     1
 -0.0130613836     1     3    11     5
 -0.0151807332     1     3    11    11
 -0.0092980955     1     3    11    17
 -0.0007107348     1     3    11    19
 0.0153421242     1     3    12     6
 -0.0001863334     1     3    12     7
 -0.0197870552     1     3    12    12
 0.0001863334     1     3    13     6
 0.0153421242     1     3    13     7
 -0.0197870552     1     3    13    13
 0.1045942963     1     3    14     2
 0.0008522802     1     3    14     4
 0.0119016884     1     3    14    10
 -0.0111365889     1     3    14    14
 0.0091072636     1     3    14    18
 0.0041793960     1     3    15     8
 0.0149256264     1     3    15     9
 -0.0194213728     1     3    15    15
 -0.0149256264     1     3    16     8
 0.0041793960     1     3    16     9
 -0.0194213728     1     3    16    16
 0.1353288034     1     3    17     1
 -0.0078193651     1     3    17     5
 -0.0087341990     1     3    17    11
 -0.0062217674     1     3    17    17
 -0.0004986105     1     3    17    19
 0.1117041951     1     3    18     2
 -0.0006672948     1     3    18     4
 -0.0097934135     1     3    18    10
 0.0086375094     1     3    18    14
 -0.0082073023     1     3    18    18
 -0.0094938393     1     3    19     1
 -0.0008236157     1     3    19     5
 -0.0008439309     1     3    19    11
 -0.0006141188     1     3    19    17
 -0.0027974213     1     3    19    19
 0.0001602634     1     4     2     1
 0.0000001504     1     4     2     3
 0.0000046058     1     4     2     5
 0.0000047209     1     4     2    11
 0.0000030378     1     4     2    17
 0.0000009051     1     4     2    19
 0.0000000001     1     4     3     1
 -0.3622127728     1     4     3     2
 -0.0009312220     1     4     3    10
 0.0015139588     1     4     3    14
 -0.0006001511     1     4     3    18
 -0.5588224464     1     4     4     1
 0.0001828452     1     4     4     3
 0.0001175050     1     4     4     5
 0.0002057680     1     4     4    11
 0.0008086952     1     4     4    17
 -0.0000023416     1     4     4    19
 0.0560969997     1     4     5     2
 0.0185873123     1     4     5    10
 -0.0158062946     1     4     5    14
 0.0147703211     1     4     5    18
 0.0185870714     1     4     6     8
 -0.0002121754     1     4     6     9
 -0.0058612532     1     4     6    15
 0.0218912801     1     4     6    16
 -0.0002121754     1     4     7     8
 -0.0185870714     1     4     7     9
 0.0218912801     1     4     7    15
 0.0058612532     1     4     7    16
 0.0188427498     1     4     8     6
 -0.0002150940     1     4     8     7
 -0.0236653827     1     4     8    12
 -0.0000172733     1     4     8    13
 -0.0002150940     1     4     9     6
 -0.0188427498     1     4     9     7
 -0.0000172733     1     4     9    12
 0.0236653827     1     4     9    13
 0.0252044810     1     4    10     1
 0.0013895243     1     4    10     3
 0.0185511786     1     4    10     5
 0.0214890232     1     4    10    11
 0.0125152735     1     4    10    17
 0.0017832751     1     4    10    19
 -0.0898365038     1     4    11     2
 0.0151116448     1     4    11    10
 -0.0126586957     1     4    11    14
 0.0126940479     1     4    11    18
 -0.0162267497     1     4    12     8
 -0.0000118439     1     4    12     9
 0.0054742427     1     4    12    15
 -0.0194950230     1     4    12    16
 -0.0000118439     1     4    13     8
 0.0162267497     1     4    13     9
 -0.0194950230     1     4    13    15
 -0.0054742427     1     4    13    16
 0.1234707630     1     4    14     1
 -0.0008522802     1     4    14     3
 -0.0108593631     1     4    14     5
 -0.0127162383     1     4    14    11
 -0.0075883412     1     4    14    17
 -0.0010474266     1     4    14    19
 -0.0039690041     1     4    15     6
 0.0148238913     1     4    15     7
 0.0053400191     1     4    15    12
 -0.0190170221     1     4    15    13
 0.0148238913     1     4    16     6
 0.0039690041     1     4    16     7
 -0.0190170221     1     4    16    12
 -0.0053400191     1     4    16    13
 0.1415627304     1     4    17     2
 0.0089337235     1     4    17    10
 -0.0078897437     1     4    17    14
 0.0070317319     1     4    17    18
 0.1051957356     1     4    18     1
 0.0006672948     1     4    18     3
 0.0089644772     1     4    18     5
 0.0110203185     1     4    18    11
 0.0057153159     1     4    18    17
 0.0013121276     1     4    18    19
 -0.0017370952     1     4    19     2
 0.0005275321     1     4    19    10
 -0.0002756246     1     4    19    14
 0.0006993988     1     4    19    18
 0.0023292047     1     5     2     2
 -0.0000046058     1     5     2     4
 -0.0000595322     1     5     2    10
 0.0000485536     1     5     2    14
 -0.0000436709     1     5     2    18
 -0.0020316584     1     5     3     1
 0.0014712226     1     5     3     3
 -0.0063374683     1     5     3    11
 -0.0044616353     1     5     3    17
 -0.0003558531     1     5     3    19
 0.0560923939     1     5     4     2
 -0.0001175050     1     5     4     4
 0.0000361337     1     5     4    10
 -0.0049469315     1     5     4    14
 0.0058058439     1     5     4    18
 -0.5173362656     1     5     5     1
 0.0173078191     1     5     5     3
 0.0039394888     1     5     5    11
 -0.0080942303     1     5     5    17
 0.0080777807     1     5     5    19
 0.0022982503     1     5     6     6
 -0.0012093279     1     5     6    12
 -0.0000146875     1     5     6    13
 0.0022982503     1     5     7     7
 0.0000146875     1     5     7    12
 -0.0012093279     1     5     7    13
 0.0023290870     1     5     8     8
 -0.0005634439     1     5     8    15
 0.0020121935     1     5     8    16
 0.0023290870     1     5     9     9
 -0.0020121935     1     5     9    15
 -0.0005634439     1     5     9    16
 -0.0000000001     1     5    10     1
 0.3277285257     1     5    10     2
 -0.0185511786     1     5    10     4
 0.0051210073     1     5    10    10
 0.0047343002     1     5    10    14
 0.0108642051     1     5    10    18
 -0.1548053210     1     5    11     1
 0.0130613836     1     5    11     3
 0.0119516553     1     5    11    11
 -0.0088116698     1     5    11    17
 0.0044917339     1     5    11    19
 -0.0014184191     1     5    12     6
 0.0000172270     1     5    12     7
 0.0030278403     1     5    12    12
 -0.0000172270     1     5    13     6
 -0.0014184191     1     5    13     7
 0.0030278403     1     5    13    13
 -0.1443397174     1     5    14     2
 0.0108593631     1     5    14     4
 -0.0023403429     1     5    14    10
 -0.0070558641     1     5    14    14
 -0.0077856877     1     5    14    18
 -0.0003550276     1     5    15     8
 -0.0012678887     1     5    15     9
 0.0022246591     1     5    15    15
 0.0012678887     1     5    16     8
 -0.0003550276     1     5    16     9
 0.0022246591     1     5    16    16
 -0.1195576209     1     5    17     1
 0.0078193651     1     5    17     3
 0.0035741324     1     5    17    11
 -0.0065821418     1     5    17    17
 0.0022008194     1     5    17    19
 0.0973542937     1     5    18     2
 -0.0089644772     1     5    18     4
 0.0018136353     1     5    18    10
 0.0060485041     1     5    18    14
 0.0088009897     1     5    18    18
 -0.0242495202     1     5    19     1
 0.0008236157     1     5    19     3
 -0.0050096778     1     5    19    11
 -0.0045032575     1     5    19    17
 0.0008912916     1     5    19    19
 -0.0000298451     1     6     2     8
 0.0000003407     1     6     2     9
 0.0000091863     1     6     2    15
 -0.0000343098     1     6     2    16
 0.0075019605     1     6     3    12
 0.0000911129     1     6     3    13
 -0.0002556784     1     6     4     8
 0.0000029186     1     6     4     9
 -0.0018922491     1     6     4    15
 0.0070673888     1     6     4    16
 0.0002090912     1     6     5    12
 0.0000025395     1     6     5    13
 -0.5224529008     1     6     6     1
 0.0182539235     1     6     6     3
 -0.0022982503     1     6     6     5
 0.0048378753     1     6     6    11
 -0.0093158382     1     6     6    17
 -0.0038927542     1     6     6    19
 0.0000000001     1     6     7     2
 -0.0000000001     1     6     8     1
 0.3376218187     1     6     8     2
 -0.0188427498     1     6     8     4
 0.0030537655     1     6     8    10
 0.0063199422     1     6     8    14
 0.0073648420     1     6     8    18
 -0.0038540259     1     6     9     2
 0.0002150940     1     6     9     4
 -0.0000348594     1     6     9    10
 -0.0000721435     1     6     9    14
 -0.0000840712     1     6     9    18
 -0.0000240254     1     6    10     8
 0.0000002743     1     6    10     9
 0.0001025116     1     6    10    15
 -0.0003828722     1     6    10    16
 -0.0010368681     1     6    11    12
 -0.0000125930     1     6    11    13
 0.2038285441     1     6    12     1
 -0.0153421242     1     6    12     3
 0.0014184191     1     6    12     5
 -0.0092120184     1     6    12    11
 0.0129576128     1     6    12    17
 0.0014911847     1     6    12    19
 0.0024755416     1     6    13     1
 -0.0001863334     1     6    13     3
 0.0000172270     1     6    13     5
 -0.0001118819     1     6    13    11
 0.0001573730     1     6    13    17
 0.0000181108     1     6    13    19
 -0.0000282330     1     6    14     8
 0.0000003223     1     6    14     9
 -0.0003398627     1     6    14    15
 0.0012693580     1     6    14    16
 -0.0497239903     1     6    15     2
 0.0039690041     1     6    15     4
 -0.0004658699     1     6    15    10
 -0.0027644781     1     6    15    14
 -0.0028622172     1     6    15    18
 -0.0000000001     1     6    16     1
 0.1857148590     1     6    16     2
 -0.0148238913     1     6    16     4
 0.0017399839     1     6    16    10
 0.0103250897     1     6    16    14
 0.0106901371     1     6    16    18
 0.0020284614     1     6    17    12
 0.0000246361     1     6    17    13
 -0.0002095535     1     6    18     8
 0.0000023921     1     6    18     9
 -0.0007117302     1     6    18    15
 0.0026582518     1     6    18    16
 -0.0034640523     1     6    19    12
 -0.0000420717     1     6    19    13
 0.0000003407     1     7     2     8
 0.0000298451     1     7     2     9
 -0.0000343098     1     7     2    15
 -0.0000091863     1     7     2    16
 -0.0000911129     1     7     3    12
 0.0075019605     1     7     3    13
 0.0000029186     1     7     4     8
 0.0002556784     1     7     4     9
 0.0070673888     1     7     4    15
 0.0018922491     1     7     4    16
 -0.0000025395     1     7     5    12
 0.0002090912     1     7     5    13
 0.0000000001     1     7     6     2
 -0.5224529008     1     7     7     1
 0.0182539235     1     7     7     3
 -0.0022982503     1     7     7     5
 0.0048378753     1     7     7    11
 -0.0093158382     1     7     7    17
 -0.0038927542     1     7     7    19
 -0.0038540259     1     7     8     2
 0.0002150940     1     7     8     4
 -0.0000348594     1     7     8    10
 -0.0000721435     1     7     8    14
 -0.0000840712     1     7     8    18
 0.0000000001     1     7     9     1
 -0.3376218187     1     7     9     2
 0.0188427498     1     7     9     4
 -0.0030537655     1     7     9    10
 -0.0063199422     1     7     9    14
 -0.0073648420     1     7     9    18
 0.0000002743     1     7    10     8
 0.0000240254     1     7    10     9
 -0.0003828722     1     7    10    15
 -0.0001025116     1     7    10    16
 0.0000125930     1     7    11    12
 -0.0010368681     1     7    11    13
 -0.0024755416     1     7    12     1
 0.0001863334     1     7    12     3
 -0.0000172270     1     7    12     5
 0.0001118819     1     7    12    11
 -0.0001573730     1     7    12    17
 -0.0000181108     1     7    12    19
 0.2038285441     1     7    13     1
 -0.0153421242     1     7    13     3
 0.0014184191     1     7    13     5
 -0.0092120184     1     7    13    11
 0.0129576128     1     7    13    17
 0.0014911847     1     7    13    19
 0.0000003223     1     7    14     8
 0.0000282330     1     7    14     9
 0.0012693580     1     7    14    15
 0.0003398627     1     7    14    16
 -0.0000000001     1     7    15     1
 0.1857148590     1     7    15     2
 -0.0148238913     1     7    15     4
 0.0017399839     1     7    15    10
 0.0103250897     1     7    15    14
 0.0106901371     1     7    15    18
 0.0497239903     1     7    16     2
 -0.0039690041     1     7    16     4
 0.0004658699     1     7    16    10
 0.0027644781     1     7    16    14
 0.0028622172     1     7    16    18
 -0.0000246361     1     7    17    12
 0.0020284614     1     7    17    13
 0.0000023921     1     7    18     8
 0.0002095535     1     7    18     9
 0.0026582518     1     7    18    15
 0.0007117302     1     7    18    16
 0.0000420717     1     7    19    12
 -0.0034640523     1     7    19    13
 0.0000298451     1     8     2     6
 -0.0000003407     1     8     2     7
 -0.0000337153     1     8     2    12
 -0.0000000246     1     8     2    13
 0.0019557833     1     8     3    15
 -0.0069845720     1     8     3    16
 0.0002556784     1     8     4     6
 -0.0000029186     1     8     4     7
 -0.0074386330     1     8     4    12
 -0.0000054294     1     8     4    13
 -0.0002084163     1     8     5    15
 0.0007443048     1     8     5    16
 -0.0000000001     1     8     6     1
 0.3376516638     1     8     6     2
 -0.0185870714     1     8     6     4
 0.0030777909     1     8     6    10
 0.0063481752     1     8     6    14
 0.0075743955     1     8     6    18
 -0.0038543666     1     8     7     2
 0.0002121754     1     8     7     4
 -0.0000351337     1     8     7    10
 -0.0000724658     1     8     7    14
 -0.0000864633     1     8     7    18
 -0.5318495391     1     8     8     1
 0.0187466812     1     8     8     3
 -0.0023290870     1     8     8     5
 0.0058249064     1     8     8    11
 -0.0097087474     1     8     8    17
 -0.0039022931     1     8     8    19
 0.0000000001     1     8     9     2
 0.0000240254     1     8    10     6
 -0.0000002743     1     8    10     7
 0.0006771787     1     8    10    12
 0.0000004943     1     8    10    13
 -0.0000917859     1     8    11    15
 0.0003277895     1     8    11    16
 0.0000000001     1     8    12     1
 -0.2094967525     1     8    12     2
 0.0162267497     1     8    12     4
 -0.0020248188     1     8    12    10
 -0.0104356302     1     8    12    14
 -0.0112634213     1     8    12    18
 -0.0001529113     1     8    13     2
 0.0000118439     1     8    13     4
 -0.0000014779     1     8    13    10
 -0.0000076169     1     8    13    14
 -0.0000082211     1     8    13    18
 0.0000282330     1     8    14     6
 -0.0000003223     1     8    14     7
 -0.0012340691     1     8    14    12
 -0.0000009007     1     8    14    13
 0.0554105562     1     8    15     1
 -0.0041793960     1     8    15     3
 0.0003550276     1     8    15     5
 -0.0022792276     1     8    15    11
 0.0035892188     1     8    15    17
 0.0003848471     1     8    15    19
 -0.1978844008     1     8    16     1
 0.0149256264     1     8    16     3
 -0.0012678887     1     8    16     5
 0.0081396690     1     8    16    11
 -0.0128179621     1     8    16    17
 -0.0013743814     1     8    16    19
 0.0004287905     1     8    17    15
 -0.0015313136     1     8    17    16
 0.0002095535     1     8    18     6
 -0.0000023921     1     8    18     7
 -0.0025560215     1     8    18    12
 -0.0000018656     1     8    18    13
 -0.0009452768     1     8    19    15
 0.0033758104     1     8    19    16
 -0.0000003407     1     9     2     6
 -0.0000298451     1     9     2     7
 -0.0000000246     1     9     2    12
 0.0000337153     1     9     2    13
 0.0069845720     1     9     3    15
 0.0019557833     1     9     3    16
 -0.0000029186     1     9     4     6
 -0.0002556784     1     9     4     7
 -0.0000054294     1     9     4    12
 0.0074386330     1     9     4    13
 -0.0007443048     1     9     5    15
 -0.0002084163     1     9     5    16
 -0.0038543666     1     9     6     2
 0.0002121754     1     9     6     4
 -0.0000351337     1     9     6    10
 -0.0000724658     1     9     6    14
 -0.0000864633     1     9     6    18
 0.0000000001     1     9     7     1
 -0.3376516638     1     9     7     2
 0.0185870714     1     9     7     4
 -0.0030777909     1     9     7    10
 -0.0063481752     1     9     7    14
 -0.0075743955     1     9     7    18
 0.0000000001     1     9     8     2
 -0.5318495391     1     9     9     1
 0.0187466812     1     9     9     3
 -0.0023290870     1     9     9     5
 0.0058249064     1     9     9    11
 -0.0097087474     1     9     9    17
 -0.0039022931     1     9     9    19
 -0.0000002743     1     9    10     6
 -0.0000240254     1     9    10     7
 0.0000004943     1     9    10    12
 -0.0006771787     1     9    10    13
 -0.0003277895     1     9    11    15
 -0.0000917859     1     9    11    16
 -0.0001529113     1     9    12     2
 0.0000118439     1     9    12     4
 -0.0000014779     1     9    12    10
 -0.0000076169     1     9    12    14
 -0.0000082211     1     9    12    18
 -0.0000000001     1     9    13     1
 0.2094967525     1     9    13     2
 -0.0162267497     1     9    13     4
 0.0020248188     1     9    13    10
 0.0104356302     1     9    13    14
 0.0112634213     1     9    13    18
 -0.0000003223     1     9    14     6
 -0.0000282330     1     9    14     7
 -0.0000009007     1     9    14    12
 0.0012340691     1     9    14    13
 0.1978844008     1     9    15     1
 -0.0149256264     1     9    15     3
 0.0012678887     1     9    15     5
 -0.0081396690     1     9    15    11
 0.0128179621     1     9    15    17
 0.0013743814     1     9    15    19
 0.0554105562     1     9    16     1
 -0.0041793960     1     9    16     3
 0.0003550276     1     9    16     5
 -0.0022792276     1     9    16    11
 0.0035892188     1     9    16    17
 0.0003848471     1     9    16    19
 0.0015313136     1     9    17    15
 0.0004287905     1     9    17    16
 -0.0000023921     1     9    18     6
 -0.0002095535     1     9    18     7
 -0.0000018656     1     9    18    12
 0.0025560215     1     9    18    13
 -0.0033758104     1     9    19    15
 -0.0009452768     1     9    19    16
 0.0024696775     1    10     2     1
 0.0000022983     1    10     2     3
 0.0000595322     1    10     2     5
 0.0000620605     1    10     2    11
 0.0000393095     1    10     2    17
 0.0000106814     1    10     2    19
 0.0259172427     1    10     3     2
 0.0009312220     1    10     3     4
 0.0052964196     1    10     3    14
 -0.0052653982     1    10     3    18
 0.0252044810     1    10     4     1
 0.0023207463     1    10     4     3
 -0.0000361337     1    10     4     5
 0.0063773784     1    10     4    11
 0.0035815500     1    10     4    17
 0.0012557430     1    10     4    19
 -0.0000000001     1    10     5     1
 0.3277880579     1    10     5     2
 -0.0185873123     1    10     5     4
 0.0070746431     1    10     5    14
 0.0090505698     1    10     5    18
 -0.0030777909     1    10     6     8
 0.0000351337     1    10     6     9
 0.0005683815     1    10     6    15
 -0.0021228561     1    10     6    16
 0.0000351337     1    10     7     8
 0.0030777909     1    10     7     9
 -0.0021228561     1    10     7    15
 -0.0005683815     1    10     7    16
 -0.0030537655     1    10     8     6
 0.0000348594     1    10     8     7
 0.0027019975     1    10     8    12
 0.0000019722     1    10     8    13
 0.0000348594     1    10     9     6
 0.0030537655     1    10     9     7
 0.0000019722     1    10     9    12
 -0.0027019975     1    10     9    13
 -0.5533327552     1    10    10     1
 0.0196720333     1    10    10     3
 -0.0051210073     1    10    10     5
 0.0030921622     1    10    10    11
 -0.0119102187     1    10    10    17
 0.0087258191     1    10    10    19
 -0.0000000001     1    10    11     1
 0.2243493296     1    10    11     2
 -0.0151116448     1    10    11     4
 0.0101530986     1    10    11    14
 0.0088272102     1    10    11    18
 0.0020248188     1    10    12     8
 0.0000014779     1    10    12     9
 -0.0008740453     1    10    12    15
 0.0031126740     1    10    12    16
 0.0000014779     1    10    13     8
 -0.0020248188     1    10    13     9
 0.0031126740     1    10    13    15
 0.0008740453     1    10    13    16
 0.1488019096     1    10    14     1
 -0.0119016884     1    10    14     3
 0.0023403429     1    10    14     5
 -0.0032757253     1    10    14    11
 0.0129798340     1    10    14    17
 -0.0032239688     1    10    14    19
 0.0004658699     1    10    15     6
 -0.0017399839     1    10    15     7
 -0.0009826404     1    10    15    12
 0.0034994059     1    10    15    13
 -0.0017399839     1    10    16     6
 -0.0004658699     1    10    16     7
 0.0034994059     1    10    16    12
 0.0009826404     1    10    16    13
 0.0880601323     1    10    17     2
 -0.0089337235     1    10    17     4
 0.0089139674     1    10    17    14