&FCI NORB= 13,NELEC= 14,MS2=0,
 ORBSYM=1,1,1,1,1,1,1,1,1,1,1,1,1
 ISYM=1,
&END
 0.1859884680     1     1     2     2
 -0.0001320335     1     1     2     4
 -0.0022712978     1     1     2    10
 0.5497247937     1     1     3     3
 -0.0000000016     1     1     3     4
 0.0019351947     1     1     3     5
 0.0000000001     1     1     3    10
 0.0849381865     1     1     3    11
 -0.0001320335     1     1     4     2
 -0.0000000016     1     1     4     3
 0.5549037224     1     1     4     4
 0.0000000002     1     1     4     5
 -0.0229192529     1     1     4    10
 -0.0000000003     1     1     4    11
 0.0019351947     1     1     5     3
 0.0000000002     1     1     5     4
 0.5126377564     1     1     5     5
 0.0000000014     1     1     5    10
 0.1620834218     1     1     5    11
 0.5195920207     1     1     6     6
 0.0000000014     1     1     6     8
 0.0000000007     1     1     6     9
 0.0004266627     1     1     6    12
 -0.2038730136     1     1     6    13
 0.5195920207     1     1     7     7
 0.0000000007     1     1     7     8
 -0.0000000014     1     1     7     9
 -0.2038730136     1     1     7    12
 -0.0004266627     1     1     7    13
 0.0000000014     1     1     8     6
 0.0000000007     1     1     8     7
 0.5275898886     1     1     8     8
 -0.0000000005     1     1     8    12
 -0.0000000007     1     1     8    13
 0.0000000007     1     1     9     6
 -0.0000000014     1     1     9     7
 0.5275898886     1     1     9     9
 0.0000000008     1     1     9    12
 -0.0000000004     1     1     9    13
 -0.0022712978     1     1    10     2
 0.0000000001     1     1    10     3
 -0.0229192529     1     1    10     4
 0.0000000014     1     1    10     5
 0.5469454443     1     1    10    10
 0.0000000010     1     1    10    11
 0.0849381865     1     1    11     3
 -0.0000000003     1     1    11     4
 0.1620834218     1     1    11     5
 0.0000000010     1     1    11    10
 0.5368354268     1     1    11    11
 0.0004266627     1     1    12     6
 -0.2038730136     1     1    12     7
 -0.0000000005     1     1    12     8
 0.0000000008     1     1    12     9
 0.5120038662     1     1    12    12
 -0.2038730136     1     1    13     6
 -0.0004266627     1     1    13     7
 -0.0000000007     1     1    13     8
 -0.0000000004     1     1    13     9
 0.5120038662     1     1    13    13
 -0.1859884680     1     2     2     1
 -0.0000443597     1     2     2     3
 -0.0021524649     1     2     2     5
 -0.0000000001     1     2     2    10
 -0.0022826398     1     2     2    11
 0.3662112267     1     2     3     4
 -0.0218783376     1     2     3    10
 0.0001320335     1     2     4     1
 0.3662113331     1     2     4     3
 -0.0503446224     1     2     4     5
 0.0830549768     1     2     4    11
 -0.0503483390     1     2     5     4
 -0.3313473092     1     2     5    10
 -0.0000000003     1     2     6     6
 0.0000000002     1     2     6     7
 -0.3023909461     1     2     6     8
 -0.1578992841     1     2     6     9
 -0.0000000001     1     2     6    12
 0.0000000001     1     2     6    13
 0.0000000002     1     2     7     6
 0.0000000003     1     2     7     7
 -0.1578992841     1     2     7     8
 0.3023909461     1     2     7     9
 -0.0000000001     1     2     7    12
 -0.0000000001     1     2     7    13
 -0.3023674403     1     2     8     6
 -0.1578870101     1     2     8     7
 0.0000000003     1     2     8     9
 0.0960505449     1     2     8    12
 0.1848872154     1     2     8    13
 -0.1578870101     1     2     9     6
 0.3023674403     1     2     9     7
 0.0000000003     1     2     9     8
 -0.1848872154     1     2     9    12
 0.0960505449     1     2     9    13
 0.0022712978     1     2    10     1
 -0.0218764944     1     2    10     3
 -0.3312946923     1     2    10     5
 -0.2249956637     1     2    10    11
 0.0830510706     1     2    11     4
 -0.2250520629     1     2    11    10
 -0.0000000001     1     2    12     6
 -0.0000000001     1     2    12     7
 0.0960643264     1     2    12     8
 -0.1849137433     1     2    12     9
 0.0000000001     1     2    13     6
 -0.0000000001     1     2    13     7
 0.1849137433     1     2    13     8
 0.0960643264     1     2    13     9
 0.0000443597     1     3     2     2
 -0.0000001064     1     3     2     4
 -0.0000018432     1     3     2    10
 -0.5497247937     1     3     3     1
 -0.0013132701     1     3     3     5
 -0.0018542184     1     3     3    11
 0.0000000016     1     3     4     1
 -0.3662113331     1     3     4     2
 -0.0001488381     1     3     4     4
 -0.0020909070     1     3     4    10
 -0.0019351947     1     3     5     1
 -0.0172779190     1     3     5     5
 -0.0198947873     1     3     5    11
 -0.0183299065     1     3     6     6
 -0.0000478866     1     3     6    12
 0.0228817448     1     3     6    13
 -0.0183299065     1     3     7     7
 0.0228817448     1     3     7    12
 0.0000478866     1     3     7    13
 -0.0187279183     1     3     8     8
 -0.0187279183     1     3     9     9
 -0.0000000001     1     3    10     1
 0.0218764944     1     3    10     2
 -0.0011988584     1     3    10     4
 -0.0195825034     1     3    10    10
 -0.0849381865     1     3    11     1
 -0.0134422558     1     3    11     5
 -0.0160348440     1     3    11    11
 -0.0000322043     1     3    12     6
 0.0153882772     1     3    12     7
 -0.0198049355     1     3    12    12
 0.0153882772     1     3    13     6
 0.0000322043     1     3    13     7
 -0.0198049355     1     3    13    13
 0.0001320335     1     4     2     1
 0.0000001064     1     4     2     3
 0.0000037166     1     4     2     5
 0.0000039062     1     4     2    11
 0.0000000016     1     4     3     1
 -0.3662112267     1     4     3     2
 -0.0008920486     1     4     3    10
 -0.5549037224     1     4     4     1
 0.0001488381     1     4     4     3
 0.0000468845     1     4     4     5
 0.0001141970     1     4     4    11
 -0.0000000002     1     4     5     1
 0.0503483390     1     4     5     2
 0.0184947588     1     4     5    10
 0.0164846655     1     4     6     8
 0.0086077871     1     4     6     9
 0.0086077871     1     4     7     8
 -0.0164846655     1     4     7     9
 0.0166908890     1     4     8     6
 0.0087154707     1     4     8     7
 -0.0108697725     1     4     8    12
 -0.0209231710     1     4     8    13
 0.0087154707     1     4     9     6
 -0.0166908890     1     4     9     7
 0.0209231710     1     4     9    12
 -0.0108697725     1     4     9    13
 0.0229192529     1     4    10     1
 0.0011988584     1     4    10     3
 0.0184880079     1     4    10     5
 0.0218531780     1     4    10    11
 0.0000000003     1     4    11     1
 -0.0830510706     1     4    11     2
 0.0153681291     1     4    11    10
 -0.0074400324     1     4    12     8
 0.0143212813     1     4    12     9
 -0.0143212813     1     4    13     8
 -0.0074400324     1     4    13     9
 0.0021524649     1     5     2     2
 -0.0000037166     1     5     2     4
 -0.0000526169     1     5     2    10
 -0.0019351947     1     5     3     1
 0.0013132701     1     5     3     3
 -0.0064525315     1     5     3    11
 -0.0000000002     1     5     4     1
 0.0503446224     1     5     4     2
 -0.0000468845     1     5     4     4
 0.0000067509     1     5     4    10
 -0.5126377564     1     5     5     1
 0.0172779190     1     5     5     3
 0.0035910614     1     5     5    11
 0.0020768949     1     5     6     6
 0.0000022964     1     5     6    12
 -0.0010973038     1     5     6    13
 0.0020768949     1     5     7     7
 -0.0010973038     1     5     7    12
 -0.0000022964     1     5     7    13
 0.0021043926     1     5     8     8
 0.0021043926     1     5     9     9
 -0.0000000014     1     5    10     1
 0.3312946923     1     5    10     2
 -0.0184880079     1     5    10     4
 0.0045959412     1     5    10    10
 -0.1620834218     1     5    11     1
 0.0134422558     1     5    11     3
 0.0112378892     1     5    11    11
 0.0000026421     1     5    12     6
 -0.0012625122     1     5    12     7
 0.0027091366     1     5    12    12
 -0.0012625122     1     5    13     6
 -0.0000026421     1     5    13     7
 0.0027091366     1     5    13    13
 -0.0000235058     1     6     2     8
 -0.0000122740     1     6     2     9
 -0.0000156823     1     6     3    12
 0.0074934676     1     6     3    13
 -0.0002062235     1     6     4     8
 -0.0001076836     1     6     4     9
 -0.0000003457     1     6     5    12
 0.0001652084     1     6     5    13
 -0.5195920207     1     6     6     1
 0.0000000003     1     6     6     2
 0.0183299065     1     6     6     3
 -0.0020768949     1     6     6     5
 0.0044469898     1     6     6    11
 -0.0000000002     1     6     7     2
 -0.0000000014     1     6     8     1
 0.3023674403     1     6     8     2
 -0.0166908890     1     6     8     4
 0.0024193866     1     6     8    10
 -0.0000000007     1     6     9     1
 0.1578870101     1     6     9     2
 -0.0087154707     1     6     9     4
 0.0012633295     1     6     9    10
 -0.0000139711     1     6    10     8
 -0.0000072952     1     6    10     9
 0.0000019703     1     6    11    12
 -0.0009414720     1     6    11    13
 -0.0004266627     1     6    12     1
 0.0000000001     1     6    12     2
 0.0000322043     1     6    12     3
 -0.0000026421     1     6    12     5
 0.0000176723     1     6    12    11
 0.2038730136     1     6    13     1
 -0.0000000001     1     6    13     2
 -0.0153882772     1     6    13     3
 0.0012625122     1     6    13     5
 -0.0084443628     1     6    13    11
 -0.0000122740     1     7     2     8
 0.0000235058     1     7     2     9
 0.0074934676     1     7     3    12
 0.0000156823     1     7     3    13
 -0.0001076836     1     7     4     8
 0.0002062235     1     7     4     9
 0.0001652084     1     7     5    12
 0.0000003457     1     7     5    13
 -0.0000000002     1     7     6     2
 -0.5195920207     1     7     7     1
 -0.0000000003     1     7     7     2
 0.0183299065     1     7     7     3
 -0.0020768949     1     7     7     5
 0.0044469898     1     7     7    11
 -0.0000000007     1     7     8     1
 0.1578870101     1     7     8     2
 -0.0087154707     1     7     8     4
 0.0012633295     1     7     8    10
 0.0000000014     1     7     9     1
 -0.3023674403     1     7     9     2
 0.0166908890     1     7     9     4
 -0.0024193866     1     7     9    10
 -0.0000072952     1     7    10     8
 0.0000139711     1     7    10     9
 -0.0009414720     1     7    11    12
 -0.0000019703     1     7    11    13
 0.2038730136     1     7    12     1
 0.0000000001     1     7    12     2
 -0.0153882772     1     7    12     3
 0.0012625122     1     7    12     5
 -0.0084443628     1     7    12    11
 0.0004266627     1     7    13     1
 0.0000000001     1     7    13     2
 -0.0000322043     1     7    13     3
 0.0000026421     1     7    13     5
 -0.0000176723     1     7    13    11
 0.0000235058     1     8     2     6
 0.0000122740     1     8     2     7
 -0.0000137815     1     8     2    12
 -0.0000265279     1     8     2    13
 0.0002062235     1     8     4     6
 0.0001076836     1     8     4     7
 -0.0034297401     1     8     4    12
 -0.0066018897     1     8     4    13
 -0.0000000014     1     8     6     1
 0.3023909461     1     8     6     2
 -0.0164846655     1     8     6     4
 0.0024333577     1     8     6    10
 -0.0000000007     1     8     7     1
 0.1578992841     1     8     7     2
 -0.0086077871     1     8     7     4
 0.0012706247     1     8     7    10
 -0.5275898886     1     8     8     1
 0.0187279183     1     8     8     3
 -0.0021043926     1     8     8     5
 0.0052576064     1     8     8    11
 -0.0000000003     1     8     9     2
 0.0000139711     1     8    10     6
 0.0000072952     1     8    10     7
 0.0002660071     1     8    10    12
 0.0005120357     1     8    10    13
 0.0000000005     1     8    12     1
 -0.0960643264     1     8    12     2
 0.0074400324     1     8    12     4
 -0.0008115380     1     8    12    10
 0.0000000007     1     8    13     1
 -0.1849137433     1     8    13     2
 0.0143212813     1     8    13     4
 -0.0015621255     1     8    13    10
 0.0000122740     1     9     2     6
 -0.0000235058     1     9     2     7
 0.0000265279     1     9     2    12
 -0.0000137815     1     9     2    13
 0.0001076836     1     9     4     6
 -0.0002062235     1     9     4     7
 0.0066018897     1     9     4    12
 -0.0034297401     1     9     4    13
 -0.0000000007     1     9     6     1
 0.1578992841     1     9     6     2
 -0.0086077871     1     9     6     4
 0.0012706247     1     9     6    10
 0.0000000014     1     9     7     1
 -0.3023909461     1     9     7     2
 0.0164846655     1     9     7     4
 -0.0024333577     1     9     7    10
 -0.0000000003     1     9     8     2
 -0.5275898886     1     9     9     1
 0.0187279183     1     9     9     3
 -0.0021043926     1     9     9     5
 0.0052576064     1     9     9    11
 0.0000072952     1     9    10     6
 -0.0000139711     1     9    10     7
 -0.0005120357     1     9    10    12
 0.0002660071     1     9    10    13
 -0.0000000008     1     9    12     1
 0.1849137433     1     9    12     2
 -0.0143212813     1     9    12     4
 0.0015621255     1     9    12    10
 0.0000000004     1     9    13     1
 -0.0960643264     1     9    13     2
 0.0074400324     1     9    13     4
 -0.0008115380     1     9    13    10
 0.0022712978     1    10     2     1
 0.0000000001     1    10     2     2
 0.0000018432     1    10     2     3
 0.0000526169     1    10     2     5
 0.0000563992     1    10     2    11
 -0.0000000001     1    10     3     1
 0.0218783376     1    10     3     2
 0.0008920486     1    10     3     4
 0.0229192529     1    10     4     1
 0.0020909070     1    10     4     3
 -0.0000067509     1    10     4     5
 0.0064850489     1    10     4    11
 -0.0000000014     1    10     5     1
 0.3313473092     1    10     5     2
 -0.0184947588     1    10     5     4
 -0.0024333577     1    10     6     8
 -0.0012706247     1    10     6     9
 -0.0012706247     1    10     7     8
 0.0024333577     1    10     7     9
 -0.0024193866     1    10     8     6
 -0.0012633295     1    10     8     7
 0.0010775451     1    10     8    12
 0.0020741612     1    10     8    13
 -0.0012633295     1    10     9     6
 0.0024193866     1    10     9     7
 -0.0020741612     1    10     9    12
 0.0010775451     1    10     9    13
 -0.5469454443     1    10    10     1
 0.0195825034     1    10    10     3
 -0.0045959412     1    10    10     5
 0.0028066655     1    10    10    11
 -0.0000000010     1    10    11     1
 0.2250520629     1    10    11     2
 -0.0153681291     1    10    11     4
 0.0008115380     1    10    12     8
 -0.0015621255     1    10    12     9
 0.0015621255     1    10    13     8
 0.0008115380     1    10    13     9
 0.0022826398     1    11     2     2
 -0.0000039062     1    11     2     4
 -0.0000563992     1    11     2    10
 -0.0849381865     1    11     3     1
 0.0018542184     1    11     3     3
 0.0064525315     1    11     3     5
 0.0000000003     1    11     4     1
 -0.0830549768     1    11     4     2
 -0.0001141970     1    11     4     4
 -0.0064850489     1    11     4    10
 -0.1620834218     1    11     5     1
 0.0198947873     1    11     5     3
 -0.0035910614     1    11     5     5
 -0.0044469898     1    11     6     6
 -0.0000157020     1    11     6    12
 0.0075028908     1    11     6    13
 -0.0044469898     1    11     7     7
 0.0075028908     1    11     7    12
 0.0000157020     1    11     7    13
 -0.0052576064     1    11     8     8
 -0.0052576064     1    11     9     9
 -0.0000000010     1    11    10     1
 0.2249956637     1    11    10     2
 -0.0218531780     1    11    10     4
 -0.0028066655     1    11    10    10
 -0.5368354268     1    11    11     1
 0.0160348440     1    11    11     3
 -0.0112378892     1    11    11     5
 -0.0000176723     1    11    12     6
 0.0084443628     1    11    12     7
 -0.0095537507     1    11    12    12
 0.0084443628     1    11    13     6
 0.0000176723     1    11    13     7
 -0.0095537507     1    11    13    13
 0.0000137815     1    12     2     8
 -0.0000265279     1    12     2     9
 0.0000156823     1    12     3     6
 -0.0074934676     1    12     3     7
 0.0034297401     1    12     4     8
 -0.0066018897     1    12     4     9
 0.0000003457     1    12     5     6
 -0.0001652084     1    12     5     7
 -0.0004266627     1    12     6     1
 0.0000000001     1    12     6     2
 0.0000478866     1    12     6     3
 -0.0000022964     1    12     6     5
 0.0000157020     1    12     6    11
 0.2038730136     1    12     7     1
 0.0000000001     1    12     7     2
 -0.0228817448     1    12     7     3
 0.0010973038     1    12     7     5
 -0.0075028908     1    12     7    11
 0.0000000005     1    12     8     1
 -0.0960505449     1    12     8     2
 0.0108697725     1    12     8     4
 -0.0010775451     1    12     8    10
 -0.0000000008     1    12     9     1
 0.1848872154     1    12     9     2
 -0.0209231710     1    12     9     4
 0.0020741612     1    12     9    10
 -0.0002660071     1    12    10     8
 0.0005120357     1    12    10     9
 -0.0000019703     1    12    11     6
 0.0009414720     1    12    11     7
 -0.5120038662     1    12    12     1
 0.0198049355     1    12    12     3
 -0.0027091366     1    12    12     5
 0.0095537507     1    12    12    11
 0.0000265279     1    13     2     8
 0.0000137815     1    13     2     9
 -0.0074934676     1    13     3     6
 -0.0000156823     1    13     3     7
 0.0066018897     1    13     4     8
 0.0034297401     1    13     4     9
 -0.0001652084     1    13     5     6
 -0.0000003457     1    13     5     7
 0.2038730136     1    13     6     1
 -0.0000000001     1    13     6     2
 -0.0228817448     1    13     6     3
 0.0010973038     1    13     6     5
 -0.0075028908     1    13     6    11
 0.0004266627     1    13     7     1
 0.0000000001     1    13     7     2
 -0.0000478866     1    13     7     3
 0.0000022964     1    13     7     5
 -0.0000157020     1    13     7    11
 0.0000000007     1    13     8     1
 -0.1848872154     1    13     8     2
 0.0209231710     1    13     8     4
 -0.0020741612     1    13     8    10
 0.0000000004     1    13     9     1
 -0.0960505449     1    13     9     2
 0.0108697725     1    13     9     4
 -0.0010775451     1    13     9    10
 -0.0005120357     1    13    10     8
 -0.0002660071     1    13    10     9
 0.0009414720     1    13    11     6
 0.0000019703     1    13    11     7
 -0.5120038662     1    13    13     1
 0.0198049355     1    13    13     3
 -0.0027091366     1    13    13     5
 0.0095537507     1    13    13    11
 -0.1859884680     2     1     1     2
 0.0001320335     2     1     1     4
 0.0022712978     2     1     1    10
 -0.0000443597     2     1     3     2
 0.3662113331     2     1     3     4
 -0.0218764944     2     1     3    10
 0.3662112267     2     1     4     3
 -0.0503483390     2     1     4     5
 0.0830510706     2     1     4    11
 -0.0021524649     2     1     5     2
 -0.0503446224     2     1     5     4
 -0.3312946923     2     1     5    10
 -0.0000000003     2     1     6     6
 0.0000000002     2     1     6     7
 -0.3023674403     2     1     6     8
 -0.1578870101     2     1     6     9
 -0.0000000001     2     1     6    12
 0.0000000001     2     1     6    13
 0.0000000002     2     1     7     6
 0.0000000003     2     1     7     7
 -0.1578870101     2     1     7     8
 0.3023674403     2     1     7     9
 -0.0000000001     2     1     7    12
 -0.0000000001     2     1     7    13
 -0.3023909461     2     1     8     6
 -0.1578992841     2     1     8     7
 0.0000000003     2     1     8     9
 0.0960643264     2     1     8    12
 0.1849137433     2     1     8    13
 -0.1578992841     2     1     9     6
 0.3023909461     2     1     9     7
 0.0000000003     2     1     9     8
 -0.1849137433     2     1     9    12
 0.0960643264     2     1     9    13
 -0.0000000001     2     1    10     2
 -0.0218783376     2     1    10     3
 -0.3313473092     2     1    10     5
 -0.2250520629     2     1    10    11
 -0.0022826398     2     1    11     2
 0.0830549768     2     1    11     4
 -0.2249956637     2     1    11    10
 -0.0000000001     2     1    12     6
 -0.0000000001     2     1    12     7
 0.0960505449     2     1    12     8
 -0.1848872154     2     1    12     9
 0.0000000001     2     1    13     6
 -0.0000000001     2     1    13     7
 0.1848872154     2     1    13     8
 0.0960505449     2     1    13     9
 0.1859884680     2     2     1     1
 0.0000443597     2     2     1     3
 0.0021524649     2     2     1     5
 0.0000000001     2     2     1    10
 0.0022826398     2     2     1    11
 0.0000443597     2     2     3     1
 0.5497251840     2     2     3     3
 0.0000000016     2     2     3     4
 0.0019383999     2     2     3     5
 -0.0000000001     2     2     3    10
 0.0849416818     2     2     3    11
 0.0000000016     2     2     4     3
 0.5549036207     2     2     4     4
 -0.0000000002     2     2     4     5
 -0.0229249866     2     2     4    10
 0.0000000003     2     2     4    11
 0.0021524649     2     2     5     1
 0.0019383999     2     2     5     3
 -0.0000000002     2     2     5     4
 0.5126866552     2     2     5     5
 -0.0000000014     2     2     5    10
 0.1621365152     2     2     5    11
 0.5196186777     2     2     6     6
 -0.0000000014     2     2     6     8
 -0.0000000007     2     2     6     9
 0.0004267250     2     2     6    12
 -0.2039028032     2     2     6    13
 0.5196186777     2     2     7     7
 -0.0000000007     2     2     7     8
 0.0000000014     2     2     7     9
 -0.2039028032     2     2     7    12
 -0.0004267250     2     2     7    13
 -0.0000000014     2     2     8     6
 -0.0000000007     2     2     8     7
 0.5275634947     2     2     8     8
 0.0000000004     2     2     8    12
 0.0000000008     2     2     8    13
 -0.0000000007     2     2     9     6
 0.0000000014     2     2     9     7
 0.5275634947     2     2     9     9
 -0.0000000007     2     2     9    12
 0.0000000005     2     2     9    13
 0.0000000001     2     2    10     1
 -0.0000000001     2     2    10     3
 -0.0229249866     2     2    10     4
 -0.0000000014     2     2    10     5
 0.5468893600     2     2    10    10
 -0.0000000010     2     2    10    11
 0.0022826398     2     2    11     1
 0.0849416818     2     2    11     3
 0.0000000003     2     2    11     4
 0.1621365152     2     2    11     5
 -0.0000000010     2     2    11    10
 0.5368933019     2     2    11    11
 0.0004267250     2     2    12     6
 -0.2039028032     2     2    12     7
 0.0000000004     2     2    12     8
 -0.0000000007     2     2    12     9
 0.5120372643     2     2    12    12
 -0.2039028032     2     2    13     6
 -0.0004267250     2     2    13     7
 0.0000000008     2     2    13     8
 0.0000000005     2     2    13     9
 0.5120372643     2     2    13    13
 -0.0000443597     2     3     1     2
 0.0000001064     2     3     1     4
 0.0000018432     2     3     1    10
 -0.5497251840     2     3     3     2
 0.0000229351     2     3     3     4
 0.0015426714     2     3     3    10
 -0.3662112267     2     3     4     1
 -0.0000000016     2     3     4     2
 0.0020427499     2     3     4     5
 0.0018277804     2     3     4    11
 -0.0019383999     2     3     5     2
 0.0011552505     2     3     5     4
 0.0190087929     2     3     5    10
 0.0166424845     2     3     6     8
 0.0086901954     2     3     6     9
 0.0086901954     2     3     7     8
 -0.0166424845     2     3     7     9
 0.0162703064     2     3     8     6
 0.0084958553     2     3     8     7
 -0.0105604513     2     3     8    12
 -0.0203277600     2     3     8    13
 0.0084958553     2     3     9     6
 -0.0162703064     2     3     9     7
 0.0203277600     2     3     9    12
 -0.0105604513     2     3     9    13
 0.0218783376     2     3    10     1
 0.0000000001     2     3    10     2
 0.0178601052     2     3    10     5
 0.0206556852     2     3    10    11
 -0.0849416818     2     3    11     2
 0.0008864838     2     3    11     4
 0.0148083523     2     3    11    10
 -0.0072570189     2     3    12     8
 0.0139689996     2     3    12     9
 -0.0139689996     2     3    13     8
 -0.0072570189     2     3    13     9
 -0.0001320335     2     4     1     1
 -0.0000001064     2     4     1     3
 -0.0000037166     2     4     1     5
 -0.0000039062     2     4     1    11
 -0.3662113331     2     4     3     1
 -0.0000000016     2     4     3     2
 -0.0000229351     2     4     3     3
 0.0008874994     2     4     3     5
 0.0009412966     2     4     3    11
 -0.5549036207     2     4     4     2
 0.0000291489     2     4     4    10
 0.0503446224     2     4     5     1
 0.0000000002     2     4     5     2
 -0.0011552505     2     4     5     3
 -0.0168708744     2     4     5     5
 -0.0196959256     2     4     5    11
 -0.0183190102     2     4     6     6
 -0.0000477352     2     4     6    12
 0.0228094257     2     4     6    13
 -0.0183190102     2     4     7     7
 0.0228094257     2     4     7    12
 0.0000477352     2     4     7    13
 -0.0193606669     2     4     8     8
 -0.0193606669     2     4     9     9
 0.0229249866     2     4    10     2
 -0.0206037780     2     4    10    10
 -0.0830549768     2     4    11     1
 -0.0000000003     2     4    11     2
 -0.0008864838     2     4    11     3
 -0.0137697816     2     4    11     5
 -0.0171781052     2     4    11    11
 -0.0000330455     2     4    12     6
 0.0157902238     2     4    12     7
 -0.0203879417     2     4    12    12
 0.0157902238     2     4    13     6
 0.0000330455     2     4    13     7
 -0.0203879417     2     4    13    13
 -0.0021524649     2     5     1     2
 0.0000037166     2     5     1     4
 0.0000526169     2     5     1    10
 -0.0019383999     2     5     3     2
 -0.0008874994     2     5     3     4
 0.0011486877     2     5     3    10
 0.0503483390     2     5     4     1
 0.0000000002     2     5     4     2
 -0.0020427499     2     5     4     3
 -0.0059261440     2     5     4    11
 -0.5126866552     2     5     5     2
 0.0168708744     2     5     5     4
 0.0005332672     2     5     5    10
 0.0000585423     2     5     6     8
 0.0000305690     2     5     6     9
 0.0000305690     2     5     7     8
 -0.0000585423     2     5     7     9
 -0.0001814428     2     5     8     6
 -0.0000947438     2     5     8     7
 0.0006148704     2     5     8    12
 0.0011835610     2     5     8    13
 -0.0000947438     2     5     9     6
 0.0001814428     2     5     9     7
 -0.0011835610     2     5     9    12
 0.0006148704     2     5     9    13
 0.3313473092     2     5    10     1
 0.0000000014     2     5    10     2
 -0.0178601052     2     5    10     3
 -0.0072747695     2     5    10    11
 -0.1621365152     2     5    11     2
 0.0137697816     2     5    11     4
 -0.0029498383     2     5    11    10
 0.0005393821     2     5    12     8
 -0.0010382539     2     5    12     9
 0.0010382539     2     5    13     8
 0.0005393821     2     5    13     9
 0.0000235058     2     6     1     8
 0.0000122740     2     6     1     9
 0.0003721781     2     6     3     8
 0.0001943401     2     6     3     9
 -0.0000146897     2     6     4    12
 0.0070192019     2     6     4    13
 0.0002399851     2     6     5     8
 0.0001253128     2     6     5     9
 0.0000000003     2     6     6     1
 -0.5196186777     2     6     6     2
 0.0183190102     2     6     6     4
 -0.0004031314     2     6     6    10
 -0.0000000002     2     6     7     1
 0.3023909461     2     6     8     1
 0.0000000014     2     6     8     2
 -0.0162703064     2     6     8     3
 0.0001814428     2     6     8     5
 -0.0062951717     2     6     8    11
 0.1578992841     2     6     9     1
 0.0000000007     2     6     9     2
 -0.0084958553     2     6     9     3
 0.0000947438     2     6     9     5
 -0.0032871457     2     6     9    11
 0.0000012531     2     6    10    12
 -0.0005987680     2     6    10    13
 -0.0001782829     2     6    11     8
 -0.0000930939     2     6    11     9
 0.0000000001     2     6    12     1
 -0.0004267250     2     6    12     2
 0.0000330455     2     6    12     4
 -0.0000033725     2     6    12    10
 -0.0000000001     2     6    13     1
 0.2039028032     2     6    13     2
 -0.0157902238     2     6    13     4
 0.0016114973     2     6    13    10
 0.0000122740     2     7     1     8
 -0.0000235058     2     7     1     9
 0.0001943401     2     7     3     8
 -0.0003721781     2     7     3     9
 0.0070192019     2     7     4    12
 0.0000146897     2     7     4    13
 0.0001253128     2     7     5     8
 -0.0002399851     2     7     5     9
 -0.0000000002     2     7     6     1
 -0.0000000003     2     7     7     1
 -0.5196186777     2     7     7     2
 0.0183190102     2     7     7     4
 -0.0004031314     2     7     7    10
 0.1578992841     2     7     8     1
 0.0000000007     2     7     8     2
 -0.0084958553     2     7     8     3
 0.0000947438     2     7     8     5
 -0.0032871457     2     7     8    11
 -0.3023909461     2     7     9     1
 -0.0000000014     2     7     9     2
 0.0162703064     2     7     9     3
 -0.0001814428     2     7     9     5
 0.0062951717     2     7     9    11
 -0.0005987680     2     7    10    12
 -0.0000012531     2     7    10    13
 -0.0000930939     2     7    11     8
 0.0001782829     2     7    11     9
 0.0000000001     2     7    12     1