&FCI NORB= 19,NELEC= 14,MS2=0,
 ORBSYM=1,1,1,1,1,1,1,1,1,1,1,1,1,1,1,1,1,1,1
 ISYM=1,
&END
 0.1790946847     1     1     2     2
 -0.0001141581     1     1     2     4
 0.0019988194     1     1     2    10
 0.0016491456     1     1     2    16
 -0.0016085877     1     1     2    18
 0.5465848078     1     1     3     3
 -0.0000000011     1     1     3     4
 -0.0019586940     1     1     3     5
 -0.0000000001     1     1     3    10
 -0.0781101918     1     1     3    11
 0.0000000003     1     1     3    16
 0.1431829113     1     1     3    17
 0.0000000003     1     1     3    18
 -0.0001141581     1     1     4     2
 -0.0000000011     1     1     4     3
 0.5510574522     1     1     4     4
 -0.0000000001     1     1     4     5
 0.0192632475     1     1     4    10
 0.0000000003     1     1     4    11
 -0.1239075082     1     1     4    16
 -0.0000000004     1     1     4    17
 -0.1045121906     1     1     4    18
 -0.0019586940     1     1     5     3
 -0.0000000001     1     1     5     4
 0.5083705352     1     1     5     5
 0.0000000010     1     1     5    10
 0.1675899826     1     1     5    11
 -0.0000000001     1     1     5    14
 0.0000000001     1     1     5    15
 0.0000000004     1     1     5    16
 0.1025613762     1     1     5    17
 -0.0000000004     1     1     5    18
 0.5166374207     1     1     6     6
 0.0000000010     1     1     6     9
 -0.2032688060     1     1     6    12
 0.0001875921     1     1     6    13
 -0.0000000005     1     1     6    14
 -0.0000000003     1     1     6    15
 0.5166374207     1     1     7     7
 0.0000000011     1     1     7     8
 -0.0000000001     1     1     7     9
 -0.0001875921     1     1     7    12
 -0.2032688060     1     1     7    13
 0.0000000005     1     1     7    14
 -0.0000000005     1     1     7    15
 -0.0000000001     1     1     7    16
 0.0000000001     1     1     7    18
 0.0000000011     1     1     8     7
 0.5237787364     1     1     8     8
 0.0000000001     1     1     8    11
 -0.0000000001     1     1     8    12
 -0.0000000006     1     1     8    13
 0.1228013268     1     1     8    14
 -0.1633444326     1     1     8    15
 0.0000000001     1     1     8    17
 0.0000000010     1     1     9     6
 -0.0000000001     1     1     9     7
 0.5237787364     1     1     9     9
 -0.0000000007     1     1     9    12
 -0.0000000001     1     1     9    13
 -0.1633444326     1     1     9    14
 -0.1228013268     1     1     9    15
 0.0019988194     1     1    10     2
 -0.0000000001     1     1    10     3
 0.0192632475     1     1    10     4
 0.0000000010     1     1    10     5
 0.5411573627     1     1    10    10
 0.0000000007     1     1    10    11
 -0.0000000001     1     1    10    13
 0.1447048768     1     1    10    16
 0.0000000002     1     1    10    17
 -0.1411078800     1     1    10    18
 -0.0781101918     1     1    11     3
 0.0000000003     1     1    11     4
 0.1675899826     1     1    11     5
 0.0000000001     1     1    11     8
 0.0000000007     1     1    11    10
 0.5316905026     1     1    11    11
 0.0000000004     1     1    11    16
 0.0205022744     1     1    11    17
 -0.0000000008     1     1    11    18
 -0.2032688060     1     1    12     6
 -0.0001875921     1     1    12     7
 -0.0000000001     1     1    12     8
 -0.0000000007     1     1    12     9
 0.5083980288     1     1    12    12
 0.0000000008     1     1    12    14
 0.0000000007     1     1    12    15
 0.0001875921     1     1    13     6
 -0.2032688060     1     1    13     7
 -0.0000000006     1     1    13     8
 -0.0000000001     1     1    13     9
 -0.0000000001     1     1    13    10
 0.5083980288     1     1    13    13
 -0.0000000006     1     1    13    14
 0.0000000008     1     1    13    15
 -0.0000000001     1     1    14     5
 -0.0000000005     1     1    14     6
 0.0000000005     1     1    14     7
 0.1228013268     1     1    14     8
 -0.1633444326     1     1    14     9
 0.0000000008     1     1    14    12
 -0.0000000006     1     1    14    13
 0.5039861510     1     1    14    14
 0.0000000001     1     1    15     5
 -0.0000000003     1     1    15     6
 -0.0000000005     1     1    15     7
 -0.1633444326     1     1    15     8
 -0.1228013268     1     1    15     9
 0.0000000007     1     1    15    12
 0.0000000008     1     1    15    13
 0.5039861510     1     1    15    15
 0.0016491456     1     1    16     2
 0.0000000003     1     1    16     3
 -0.1239075082     1     1    16     4
 0.0000000004     1     1    16     5
 -0.0000000001     1     1    16     7
 0.1447048768     1     1    16    10
 0.0000000004     1     1    16    11
 0.4632318938     1     1    16    16
 0.0000000008     1     1    16    17
 -0.0283678355     1     1    16    18
 0.1431829113     1     1    17     3
 -0.0000000004     1     1    17     4
 0.1025613762     1     1    17     5
 0.0000000001     1     1    17     8
 0.0000000002     1     1    17    10
 0.0205022744     1     1    17    11
 0.0000000008     1     1    17    16
 0.4456756974     1     1    17    17
 0.0000000002     1     1    17    18
 -0.0016085877     1     1    18     2
 0.0000000003     1     1    18     3
 -0.1045121906     1     1    18     4
 -0.0000000004     1     1    18     5
 0.0000000001     1     1    18     7
 -0.1411078800     1     1    18    10
 -0.0000000008     1     1    18    11
 -0.0283678355     1     1    18    16
 0.0000000002     1     1    18    17
 0.4901895739     1     1    18    18
 0.4719546990     1     1    19    19
 -0.1790946847     1     2     2     1
 -0.0000359318     1     2     2     3
 0.0019875817     1     2     2     5
 0.0020850548     1     2     2    11
 0.0010726294     1     2     2    17
 0.3693490550     1     2     3     4
 0.0196456427     1     2     3    10
 -0.1088413739     1     2     3    16
 -0.1112802444     1     2     3    18
 0.0001141581     1     2     4     1
 0.3693532214     1     2     4     3
 0.0450100283     1     2     4     5
 -0.0770926482     1     2     4    11
 0.1471801437     1     2     4    17
 0.0450134385     1     2     5     4
 0.0000000004     1     2     5     7
 -0.3329949270     1     2     5    10
 -0.0000000001     1     2     5    13
 -0.1391049424     1     2     5    16
 0.1089775717     1     2     5    18
 0.0000000004     1     2     6     6
 0.0000000004     1     2     6     7
 -0.0141325913     1     2     6     8
 -0.3423131250     1     2     6     9
 -0.0000000001     1     2     6    12
 -0.0000000001     1     2     6    13
 0.1504730576     1     2     6    14
 0.1231597332     1     2     6    15
 0.0000000004     1     2     7     5
 0.0000000004     1     2     7     6
 -0.0000000004     1     2     7     7
 -0.3423131250     1     2     7     8
 0.0141325913     1     2     7     9
 0.0000000001     1     2     7    11
 -0.0000000001     1     2     7    12
 0.0000000001     1     2     7    13
 -0.1231597332     1     2     7    14
 0.1504730576     1     2     7    15
 -0.0141314105     1     2     8     6
 -0.3422845216     1     2     8     7
 0.0000000003     1     2     8     8
 -0.0000000004     1     2     8     9
 -0.0000000003     1     2     8    10
 0.0087234444     1     2     8    12
 0.2066674643     1     2     8    13
 0.0000000002     1     2     8    14
 -0.0000000001     1     2     8    16
 0.0000000001     1     2     8    18
 -0.3422845216     1     2     9     6
 0.0141314105     1     2     9     7
 -0.0000000004     1     2     9     8
 -0.0000000003     1     2     9     9
 0.2066674643     1     2     9    12
 -0.0087234444     1     2     9    13
 0.0000000002     1     2     9    15
 -0.0019988194     1     2    10     1
 0.0196421271     1     2    10     3
 -0.3329521703     1     2    10     5
 -0.0000000003     1     2    10     8
 -0.2241624776     1     2    10    11
 -0.0000000001     1     2    10    14
 0.0000000001     1     2    10    15
 -0.0732480142     1     2    10    17
 -0.0770913053     1     2    11     4
 0.0000000001     1     2    11     7
 -0.2242098522     1     2    11    10
 -0.1255266179     1     2    11    16
 0.2752108565     1     2    11    18
 -0.0000000001     1     2    12     6
 -0.0000000001     1     2    12     7
 0.0087249378     1     2    12     8
 0.2067028453     1     2    12     9
 0.0000000001     1     2    12    12
 0.0000000001     1     2    12    13
 -0.2572092581     1     2    12    14
 -0.2109182569     1     2    12    15
 -0.0000000001     1     2    13     5
 -0.0000000001     1     2    13     6
 0.0000000001     1     2    13     7
 0.2067028453     1     2    13     8
 -0.0087249378     1     2    13     9
 0.0000000001     1     2    13    12
 -0.0000000001     1     2    13    13
 0.2109182569     1     2    13    14
 -0.2572092581     1     2    13    15
 0.1504467011     1     2    14     6
 -0.1231381608     1     2    14     7
 0.0000000002     1     2    14     8
 -0.0000000001     1     2    14    10
 -0.2571769917     1     2    14    12
 0.2108917975     1     2    14    13
 0.0000000001     1     2    14    14
 -0.0000000001     1     2    14    15
 0.1231381608     1     2    15     6
 0.1504467011     1     2    15     7
 0.0000000002     1     2    15     9
 0.0000000001     1     2    15    10
 -0.2108917975     1     2    15    12
 -0.2571769917     1     2    15    13
 -0.0000000001     1     2    15    14
 -0.0000000001     1     2    15    15
 -0.0016491456     1     2    16     1
 -0.1088453697     1     2    16     3
 -0.1390713446     1     2    16     5
 -0.0000000001     1     2    16     8
 -0.1254896160     1     2    16    11
 -0.2900824081     1     2    16    17
 0.1471799030     1     2    17     4
 -0.0732709984     1     2    17    10
 -0.2901003552     1     2    17    16
 -0.0592239068     1     2    17    18
 0.0016085877     1     2    18     1
 -0.1112780150     1     2    18     3
 0.1089420968     1     2    18     5
 0.0000000001     1     2    18     8
 0.2751721015     1     2    18    11
 -0.0592426361     1     2    18    17
 0.0000359318     1     3     2     2
 -0.0000039773     1     3     2     4
 0.0000033669     1     3     2    10
 0.0000036588     1     3     2    16
 -0.0000016660     1     3     2    18
 -0.5465848078     1     3     3     1
 0.0011970149     1     3     3     5
 0.0016369552     1     3     3    11
 0.0002501962     1     3     3    17
 0.0000000011     1     3     4     1
 -0.3693532214     1     3     4     2
 -0.0001985128     1     3     4     4
 0.0018639378     1     3     4    10
 0.0019459979     1     3     4    16
 -0.0010522529     1     3     4    18
 0.0019586940     1     3     5     1
 -0.0173118221     1     3     5     5
 -0.0200481455     1     3     5    11
 -0.0103073946     1     3     5    17
 -0.0184288681     1     3     6     6
 0.0226800761     1     3     6    12
 -0.0000209310     1     3     6    13
 -0.0184288681     1     3     7     7
 0.0000209310     1     3     7    12
 0.0226800761     1     3     7    13
 -0.0182428630     1     3     8     8
 -0.0132895185     1     3     8    14
 0.0176770799     1     3     8    15
 -0.0182428630     1     3     9     9
 0.0176770799     1     3     9    14
 0.0132895185     1     3     9    15
 0.0000000001     1     3    10     1
 -0.0196421271     1     3    10     2
 0.0010868278     1     3    10     4
 -0.0190076919     1     3    10    10
 -0.0162466662     1     3    10    16
 0.0154639409     1     3    10    18
 0.0781101918     1     3    11     1
 -0.0137128632     1     3    11     5
 -0.0165516897     1     3    11    11
 -0.0082488280     1     3    11    17
 0.0154417232     1     3    12     6
 0.0000142508     1     3    12     7
 -0.0196854617     1     3    12    12
 -0.0000142508     1     3    13     6
 0.0154417232     1     3    13     7
 -0.0196854617     1     3    13    13
 -0.0092537617     1     3    14     8
 0.0123089097     1     3    14     9
 -0.0193735342     1     3    14    14
 0.0123089097     1     3    15     8
 0.0092537617     1     3    15     9
 -0.0193735342     1     3    15    15
 -0.0000000003     1     3    16     1
 0.1088453697     1     3    16     2
 0.0006376354     1     3    16     4
 -0.0113987951     1     3    16    10
 -0.0104807511     1     3    16    16
 0.0093033461     1     3    16    18
 -0.1431829113     1     3    17     1
 -0.0066979499     1     3    17     5
 -0.0078022874     1     3    17    11
 -0.0046865532     1     3    17    17
 -0.0000000003     1     3    18     1
 0.1112780150     1     3    18     2
 -0.0005442295     1     3    18     4
 0.0103889537     1     3    18    10
 0.0089561239     1     3    18    16
 -0.0091528607     1     3    18    18
 -0.0027378630     1     3    19    19
 0.0001141581     1     4     2     1
 0.0000039773     1     4     2     3
 -0.0000026931     1     4     2     5
 -0.0000016229     1     4     2    11
 -0.0000000432     1     4     2    17
 0.0000000011     1     4     3     1
 -0.3693490550     1     4     3     2
 0.0008030368     1     4     3    10
 0.0013171245     1     4     3    16
 -0.0005164634     1     4     3    18
 -0.5510574522     1     4     4     1
 0.0001985128     1     4     4     3
 0.0000087733     1     4     4     5
 -0.0000647802     1     4     4    11
 -0.0006171564     1     4     4    17
 0.0000000001     1     4     5     1
 -0.0450134385     1     4     5     2
 0.0182145296     1     4     5    10
 0.0152845965     1     4     5    16
 -0.0152556729     1     4     5    18
 0.0007573303     1     4     6     8
 0.0183437055     1     4     6     9
 -0.0174016075     1     4     6    14
 -0.0142429308     1     4     6    15
 0.0183437055     1     4     7     8
 -0.0007573303     1     4     7     9
 0.0142429308     1     4     7    14
 -0.0174016075     1     4     7    15
 0.0007536036     1     4     8     6
 0.0182534389     1     4     8     7
 -0.0009660114     1     4     8    12
 -0.0228858130     1     4     8    13
 0.0182534389     1     4     9     6
 -0.0007536036     1     4     9     7
 -0.0228858130     1     4     9    12
 0.0009660114     1     4     9    13
 -0.0192632475     1     4    10     1
 -0.0010868278     1     4    10     3
 0.0177838285     1     4    10     5
 0.0213897096     1     4    10    11
 0.0102410050     1     4    10    17
 -0.0000000003     1     4    11     1
 0.0770913053     1     4    11     2
 0.0153853314     1     4    11    10
 0.0128254568     1     4    11    16
 -0.0135835101     1     4    11    18
 -0.0006710261     1     4    12     8
 -0.0158973070     1     4    12     9
 0.0154527139     1     4    12    14
 0.0126716259     1     4    12    15
 -0.0158973070     1     4    13     8
 0.0006710261     1     4    13     9
 -0.0126716259     1     4    13    14
 0.0154527139     1     4    13    15
 -0.0118779707     1     4    14     6
 0.0097219246     1     4    14     7
 0.0151863635     1     4    14    12
 -0.0124532116     1     4    14    13
 -0.0097219246     1     4    15     6
 -0.0118779707     1     4    15     7
 0.0124532116     1     4    15    12
 0.0151863635     1     4    15    13
 0.1239075082     1     4    16     1
 -0.0006376354     1     4    16     3
 0.0105518573     1     4    16     5
 0.0127410845     1     4    16    11
 0.0063735006     1     4    16    17
 0.0000000004     1     4    17     1
 -0.1471799030     1     4    17     2
 0.0074171004     1     4    17    10
 0.0066119767     1     4    17    16
 -0.0060834143     1     4    17    18
 0.1045121906     1     4    18     1
 0.0005442295     1     4    18     3
 -0.0095871908     1     4    18     5
 -0.0120911498     1     4    18    11
 -0.0051579743     1     4    18    17
 -0.0019875817     1     5     2     2
 0.0000026931     1     5     2     4
 -0.0000437518     1     5     2    10
 -0.0000350946     1     5     2    16
 0.0000354540     1     5     2    18
 0.0019586940     1     5     3     1
 -0.0011970149     1     5     3     3
 -0.0065048059     1     5     3    11
 -0.0036929504     1     5     3    17
 0.0000000001     1     5     4     1
 -0.0450100283     1     5     4     2
 -0.0000087733     1     5     4     4
 0.0005400324     1     5     4    10
 0.0048630415     1     5     4    16
 -0.0057842694     1     5     4    18
 -0.5083705352     1     5     5     1
 0.0173118221     1     5     5     3
 -0.0034743913     1     5     5    11
 0.0085074330     1     5     5    17
 -0.0018588685     1     5     6     6
 0.0009948389     1     5     6    12
 -0.0000009181     1     5     6    13
 -0.0000000004     1     5     7     2
 -0.0018588685     1     5     7     7
 0.0000009181     1     5     7    12
 0.0009948389     1     5     7    13
 -0.0018304535     1     5     8     8
 -0.0008745045     1     5     8    14
 0.0011632240     1     5     8    15
 -0.0018304535     1     5     9     9
 0.0011632240     1     5     9    14
 0.0008745045     1     5     9    15
 -0.0000000010     1     5    10     1
 0.3329521703     1     5    10     2
 -0.0177838285     1     5    10     4
 -0.0041113152     1     5    10    10
 0.0053866706     1     5    10    16
 0.0097185672     1     5    10    18
 -0.1675899826     1     5    11     1
 0.0137128632     1     5    11     3
 -0.0104754886     1     5    11    11
 0.0105789243     1     5    11    17
 0.0010887040     1     5    12     6
 0.0000010048     1     5    12     7
 -0.0023892182     1     5    12    12
 0.0000000001     1     5    13     2
 -0.0000010048     1     5    13     6
 0.0010887040     1     5    13     7
 -0.0023892182     1     5    13    13
 0.0000000001     1     5    14     1
 -0.0006053659     1     5    14     8
 0.0008052287     1     5    14     9
 -0.0018769126     1     5    14    14
 -0.0000000001     1     5    15     1
 0.0008052287     1     5    15     8
 0.0006053659     1     5    15     9
 -0.0018769126     1     5    15    15
 -0.0000000004     1     5    16     1
 0.1390713446     1     5    16     2
 -0.0105518573     1     5    16     4
 -0.0017371130     1     5    16    10
 0.0073259323     1     5    16    16
 0.0071281911     1     5    16    18
 -0.1025613762     1     5    17     1
 0.0066979499     1     5    17     3
 -0.0019054735     1     5    17    11
 0.0060914808     1     5    17    17
 0.0000000004     1     5    18     1
 -0.1089420968     1     5    18     2
 0.0095871908     1     5    18     4
 0.0014807731     1     5    18    10
 -0.0062874007     1     5    18    16
 -0.0093437622     1     5    18    18
 -0.0010376787     1     5    19    19
 -0.0000012263     1     6     2     8
 -0.0000297031     1     6     2     9
 0.0000254352     1     6     2    14
 0.0000208183     1     6     2    15
 0.0074296940     1     6     3    12
 -0.0000068567     1     6     3    13
 0.0000065834     1     6     4     8
 0.0001594586     1     6     4     9
 -0.0056319701     1     6     4    14
 -0.0046096753     1     6     4    15
 -0.0001178028     1     6     5    12
 0.0000001087     1     6     5    13
 -0.5166374207     1     6     6     1
 -0.0000000004     1     6     6     2
 0.0184288681     1     6     6     3
 0.0018588685     1     6     6     5
 -0.0041630499     1     6     6    11
 0.0096691535     1     6     6    17
 -0.0051099460     1     6     6    19
 -0.0000000004     1     6     7     2
 0.0046193454     1     6     7    19
 0.0141314105     1     6     8     2
 -0.0007536036     1     6     8     4
 -0.0001011717     1     6     8    10
 0.0002714136     1     6     8    16
 0.0003112819     1     6     8    18
 -0.0000000010     1     6     9     1
 0.3422845216     1     6     9     2
 -0.0182534389     1     6     9     4
 -0.0024505351     1     6     9    10
 0.0065740554     1     6     9    16
 0.0075397276     1     6     9    18
 -0.0000018749     1     6    10     8
 -0.0000454127     1     6    10     9
 -0.0002132573     1     6    10    14
 -0.0001745476     1     6    10    15
 0.0008974592     1     6    11    12
 -0.0000008283     1     6    11    13
 0.2032688060     1     6    12     1
 0.0000000001     1     6    12     2
 -0.0154417232     1     6    12     3
 -0.0010887040     1     6    12     5
 0.0077794425     1     6    12    11
 -0.0137567705     1     6    12    17
 0.0026625894     1     6    12    19
 -0.0001875921     1     6    13     1
 0.0000000001     1     6    13     2
 0.0000142508     1     6    13     3
 0.0000010048     1     6    13     5
 -0.0000071795     1     6    13    11
 0.0000126958     1     6    13    17
 -0.0024114259     1     6    13    19
 0.0000000005     1     6    14     1
 -0.1504467011     1     6    14     2
 0.0118779707     1     6    14     4
 0.0010607469     1     6    14    10
 -0.0084804298     1     6    14    16
 -0.0085256202     1     6    14    18
 0.0000000003     1     6    15     1
 -0.1231381608     1     6    15     2
 0.0097219246     1     6    15     4
 0.0008682040     1     6    15    10
 -0.0069410929     1     6    15    16
 -0.0069780805     1     6    15    18
 -0.0000011582     1     6    16     8
 -0.0000280542     1     6    16     9
 -0.0010963116     1     6    16    14
 -0.0008973130     1     6    16    15
 -0.0020890515     1     6    17    12
 0.0000019279     1     6    17    13
 -0.0000071401     1     6    18     8
 -0.0001729440     1     6    18     9
 -0.0018050486     1     6    18    14
 -0.0014774027     1     6    18    15
 -0.0041727065     1     6    19    12
 0.0037790929     1     6    19    13
 -0.0000297031     1     7     2     8
 0.0000012263     1     7     2     9
 -0.0000208183     1     7     2    14
 0.0000254352     1     7     2    15
 0.0000068567     1     7     3    12
 0.0074296940     1     7     3    13
 0.0001594586     1     7     4     8
 -0.0000065834     1     7     4     9
 0.0046096753     1     7     4    14
 -0.0056319701     1     7     4    15
 -0.0000000004     1     7     5     2
 -0.0000001087     1     7     5    12
 -0.0001178028     1     7     5    13
 -0.0000000004     1     7     6     2
 0.0046193454     1     7     6    19
 -0.5166374207     1     7     7     1
 0.0000000004     1     7     7     2
 0.0184288681     1     7     7     3
 0.0018588685     1     7     7     5
 -0.0041630499     1     7     7    11
 0.0096691535     1     7     7    17
 0.0051099460     1     7     7    19
 -0.0000000011     1     7     8     1
 0.3422845216     1     7     8     2
 -0.0182534389     1     7     8     4
 -0.0024505351     1     7     8    10
 0.0065740554     1     7     8    16
 0.0075397276     1     7     8    18
 0.0000000001     1     7     9     1
 -0.0141314105     1     7     9     2
 0.0007536036     1     7     9     4
 0.0001011717     1     7     9    10
 -0.0002714136     1     7     9    16
 -0.0003112819     1     7     9    18
 -0.0000454127     1     7    10     8
 0.0000018749     1     7    10     9
 0.0001745476     1     7    10    14
 -0.0002132573     1     7    10    15
 -0.0000000001     1     7    11     2
 0.0000008283     1     7    11    12
 0.0008974592     1     7    11    13
 0.0001875921     1     7    12     1
 0.0000000001     1     7    12     2
 -0.0000142508     1     7    12     3
 -0.0000010048     1     7    12     5
 0.0000071795     1     7    12    11
 -0.0000126958     1     7    12    17
 -0.0024114259     1     7    12    19
 0.2032688060     1     7    13     1
 -0.0000000001     1     7    13     2
 -0.0154417232     1     7    13     3
 -0.0010887040     1     7    13     5
 0.0077794425     1     7    13    11
 -0.0137567705     1     7    13    17
 -0.0026625894     1     7    13    19
 -0.0000000005     1     7    14     1
 0.1231381608     1     7    14     2
 -0.0097219246     1     7    14     4
 -0.0008682040     1     7    14    10
 0.0069410929     1     7    14    16
 0.0069780805     1     7    14    18
 0.0000000005     1     7    15     1
 -0.1504467011     1     7    15     2
 0.0118779707     1     7    15     4
 0.0010607469     1     7    15    10
 -0.0084804298     1     7    15    16
 -0.0085256202     1     7    15    18
 0.0000000001     1     7    16     1
 -0.0000280542     1     7    16     8
 0.0000011582     1     7    16     9
 0.0008973130     1     7    16    14
 -0.0010963116     1     7    16    15
 -0.0000019279     1     7    17    12
 -0.0020890515     1     7    17    13
 -0.0000000001     1     7    18     1
 -0.0001729440     1     7    18     8
 0.0000071401     1     7    18     9
 0.0014774027     1     7    18    14
 -0.0018050486     1     7    18    15
 0.0037790929     1     7    19    12
 0.0041727065     1     7    19    13
 0.0000012263     1     8     2     6
 0.0000297031     1     8     2     7
 -0.0000016700     1     8     2    12
 -0.0000395629     1     8     2    13
 -0.0038248982     1     8     3    14
 0.0050876960     1     8     3    15
 -0.0000065834     1     8     4     6
 -0.0001594586     1     8     4     7
 -0.0002854002     1     8     4    12
 -0.0067614266     1     8     4    13
 -0.0002422121     1     8     5    14
 0.0003221790     1     8     5    15
 0.0141325913     1     8     6     2
 -0.0007573303     1     8     6     4
 -0.0001018977     1     8     6    10
 0.0002731517     1     8     6    16
 0.0003209131     1     8     6    18
 -0.0000000011     1     8     7     1
 0.3423131250     1     8     7     2
 -0.0183437055     1     8     7     4
 -0.0024681195     1     8     7    10
 0.0066161567     1     8     7    16
 0.0077730102     1     8     7    18
 -0.5237787364     1     8     8     1
 -0.0000000003     1     8     8     2
 0.0182428630     1     8     8     3
 0.0018304535     1     8     8     5
 -0.0047924722     1     8     8    11
 0.0099879927     1     8     8    17
 0.0056443228     1     8     8    19
 0.0000000004     1     8     9     2
 0.0043130707     1     8     9    19
 0.0000000003     1     8    10     2
 0.0000018749     1     8    10     6
 0.0000454127     1     8    10     7
 -0.0000205453     1     8    10    12
 -0.0004867402     1     8    10    13
 -0.0000000001     1     8    11     1
 -0.0001956231     1     8    11    14
 0.0002602084     1     8    11    15
 0.0000000001     1     8    12     1
 -0.0087249378     1     8    12     2
 0.0006710261     1     8    12     4
 0.0000637119     1     8    12    10
 -0.0004528059     1     8    12    16
 -0.0004642609     1     8    12    18
 0.0000000006     1     8    13     1
 -0.2067028453     1     8    13     2
 0.0158973070     1     8    13     4
 0.0015094013     1     8    13    10
 -0.0107274431     1     8    13    16
 -0.0109988227     1     8    13    18
 -0.1228013268     1     8    14     1
 -0.0000000002     1     8    14     2
 0.0092537617     1     8    14     3
 0.0006053659     1     8    14     5
 -0.0043288601     1     8    14    11
 0.0083008523     1     8    14    17
 -0.0000274491     1     8    14    19
 0.1633444326     1     8    15     1
 -0.0123089097     1     8    15     3
 -0.0008052287     1     8    15     5
 0.0057580420     1     8    15    11
 -0.0110413954     1     8    15    17
 -0.0034995981     1     8    15    19
 0.0000000001     1     8    16     2
 0.0000011582     1     8    16     6
 0.0000280542     1     8    16     7
 -0.0000531750     1     8    16    12
 -0.0012597705     1     8    16    13
 -0.0000000001     1     8    17     1
 0.0009672947     1     8    17    14
 -0.0012866491     1     8    17    15
 -0.0000000001     1     8    18     2
 0.0000071401     1     8    18     6
 0.0001729440     1     8    18     7
 -0.0000884271     1     8    18    12
 -0.0020949307     1     8    18    13
 0.0000447361     1     8    19    14
 0.0057036008     1     8    19    15
 0.0000297031     1     9     2     6
 -0.0000012263     1     9     2     7
 -0.0000395629     1     9     2    12
 0.0000016700     1     9     2    13
 0.0050876960     1     9     3    14
 0.0038248982     1     9     3    15
 -0.0001594586     1     9     4     6
 0.0000065834     1     9     4     7
 -0.0067614266     1     9     4    12
 0.0002854002     1     9     4    13
 0.0003221790     1     9     5    14
 0.0002422121     1     9     5    15
 -0.0000000010     1     9     6     1
 0.3423131250     1     9     6     2
 -0.0183437055     1     9     6     4
 -0.0024681195     1     9     6    10
 0.0066161567     1     9     6    16
 0.0077730102     1     9     6    18
 0.0000000001     1     9     7     1
 -0.0141325913     1     9     7     2
 0.0007573303     1     9     7     4
 0.0001018977     1     9     7    10
 -0.0002731517     1     9     7    16
 -0.0003209131     1     9     7    18
 0.0000000004     1     9     8     2
 0.0043130707     1     9     8    19
 -0.5237787364     1     9     9     1
 0.0000000003     1     9     9     2
 0.0182428630     1     9     9     3
 0.0018304535     1     9     9     5
 -0.0047924722     1     9     9    11
 0.0099879927     1     9     9    17
 -0.0056443228     1     9     9    19
 0.0000454127     1     9    10     6
 -0.0000018749     1     9    10     7
 -0.0004867402     1     9    10    12
 0.0000205453     1     9    10    13
 0.0002602084     1     9    11    14
 0.0001956231     1     9    11    15
 0.0000000007     1     9    12     1
 -0.2067028453     1     9    12     2
 0.0158973070     1     9    12     4
 0.0015094013     1     9    12    10
 -0.0107274431     1     9    12    16
 -0.0109988227     1     9    12    18
 0.0000000001     1     9    13     1
 0.0087249378     1     9    13     2
 -0.0006710261     1     9    13     4
 -0.0000637119     1     9    13    10
 0.0004528059     1     9    13    16
 0.0004642609     1     9    13    18
 0.1633444326     1     9    14     1
 -0.0123089097     1     9    14     3
 -0.0008052287     1     9    14     5
 0.0057580420     1     9    14    11
 -0.0110413954     1     9    14    17
 0.0034995981     1     9    14    19
 0.1228013268     1     9    15     1
 -0.0000000002     1     9    15     2