&FCI NORB= 13,NELEC= 14,MS2=0,
 ORBSYM=1,1,1,1,1,1,1,1,1,1,1,1,1
 ISYM=1,
&END
 0.2686647086     1     1     2     2
 0.0000000045     1     1     2     3
 -0.0007865631     1     1     2     4
 -0.0000000379     1     1     2     5
 0.0048757191     1     1     2    10
 -0.0045229140     1     1     2    13
 0.0000000045     1     1     3     2
 0.5902939224     1     1     3     3
 -0.0000050517     1     1     3     4
 -0.0147844930     1     1     3     5
 -0.0000013788     1     1     3    10
 -0.0000009294     1     1     3    13
 -0.0007865631     1     1     4     2
 -0.0000050517     1     1     4     3
 0.5930168341     1     1     4     4
 -0.0000020226     1     1     4     5
 0.0479161927     1     1     4    10
 0.1146177018     1     1     4    13
 -0.0000000379     1     1     5     2
 -0.0147844930     1     1     5     3
 -0.0000020226     1     1     5     4
 0.5760767652     1     1     5     5
 0.0000046857     1     1     5    10
 -0.0000028340     1     1     5    13
 0.5508762669     1     1     6     6
 0.0000013163     1     1     6     8
 -0.0000046894     1     1     6     9
 -0.0856629454     1     1     6    11
 0.1851458722     1     1     6    12
 0.5508762669     1     1     7     7
 -0.0000046894     1     1     7     8
 -0.0000013163     1     1     7     9
 0.1851458722     1     1     7    11
 0.0856629454     1     1     7    12
 0.0000013163     1     1     8     6
 -0.0000046894     1     1     8     7
 0.5705547348     1     1     8     8
 -0.0000034591     1     1     8    11
 -0.0000005572     1     1     8    12
 -0.0000046894     1     1     9     6
 -0.0000013163     1     1     9     7
 0.5705547348     1     1     9     9
 0.0000005572     1     1     9    11
 -0.0000034591     1     1     9    12
 0.0048757191     1     1    10     2
 -0.0000013788     1     1    10     3
 0.0479161927     1     1    10     4
 0.0000046857     1     1    10     5
 0.6130028687     1     1    10    10
 -0.1775360401     1     1    10    13
 -0.0856629454     1     1    11     6
 0.1851458722     1     1    11     7
 -0.0000034591     1     1    11     8
 0.0000005572     1     1    11     9
 0.5594849661     1     1    11    11
 0.1851458722     1     1    12     6
 0.0856629454     1     1    12     7
 -0.0000005572     1     1    12     8
 -0.0000034591     1     1    12     9
 0.5594849661     1     1    12    12
 -0.0045229140     1     1    13     2
 -0.0000009294     1     1    13     3
 0.1146177018     1     1    13     4
 -0.0000028340     1     1    13     5
 -0.1775360401     1     1    13    10
 0.4968825493     1     1    13    13
 -0.2686647086     1     2     2     1
 -0.0005659951     1     2     2     3
 -0.0000000063     1     2     2     4
 0.0047175654     1     2     2     5
 0.0000000392     1     2     2    10
 -0.0000000364     1     2     2    13
 -0.0000000045     1     2     3     1
 -0.0000000054     1     2     3     3
 0.3137422329     1     2     3     4
 -0.0000000004     1     2     3     5
 0.0856198893     1     2     3    10
 0.0575242367     1     2     3    13
 0.0007865631     1     2     4     1
 0.3137465655     1     2     4     3
 0.0000000050     1     2     4     4
 0.1255983002     1     2     4     5
 0.0000000007     1     2     4    10
 -0.0000000020     1     2     4    13
 0.0000000379     1     2     5     1
 -0.0000000004     1     2     5     3
 0.1256298138     1     2     5     4
 -0.0000000022     1     2     5     5
 -0.2910867886     1     2     5    10
 0.1759136711     1     2     5    13
 -0.0000000024     1     2     6     6
 -0.0817596780     1     2     6     8
 0.2912726193     1     2     6     9
 0.0000000012     1     2     6    11
 -0.0000000027     1     2     6    12
 -0.0000000024     1     2     7     7
 0.2912726193     1     2     7     8
 0.0817596780     1     2     7     9
 -0.0000000027     1     2     7    11
 -0.0000000012     1     2     7    12
 -0.0817380621     1     2     8     6
 0.2911956114     1     2     8     7
 0.0000000021     1     2     8     8
 0.2147035105     1     2     8    11
 0.0345806559     1     2     8    12
 0.2911956114     1     2     9     6
 0.0817380621     1     2     9     7
 0.0000000021     1     2     9     9
 -0.0345806559     1     2     9    11
 0.2147035105     1     2     9    12
 -0.0048757191     1     2    10     1
 0.0855946352     1     2    10     3
 0.0000000007     1     2    10     4
 -0.2909164251     1     2    10     5
 0.0000000022     1     2    10    10
 -0.0000000004     1     2    10    13
 0.0000000012     1     2    11     6
 -0.0000000027     1     2    11     7
 0.2147964848     1     2    11     8
 -0.0345956306     1     2    11     9
 -0.0000000062     1     2    11    11
 -0.0000000027     1     2    12     6
 -0.0000000012     1     2    12     7
 0.0345956306     1     2    12     8
 0.2147964848     1     2    12     9
 -0.0000000062     1     2    12    12
 0.0045229140     1     2    13     1
 0.0575481382     1     2    13     3
 -0.0000000020     1     2    13     4
 0.1757536345     1     2    13     5
 -0.0000000004     1     2    13    10
 -0.0000000082     1     2    13    13
 -0.0000000045     1     3     2     1
 0.0005659951     1     3     2     2
 -0.0000043326     1     3     2     4
 0.0000252541     1     3     2    10
 -0.0000239015     1     3     2    13
 -0.5902939224     1     3     3     1
 0.0000000054     1     3     3     2
 -0.0000000048     1     3     3     4
 0.0046110530     1     3     3     5
 0.0000000447     1     3     3    10
 -0.0000000423     1     3     3    13
 0.0000050517     1     3     4     1
 -0.3137465655     1     3     4     2
 -0.0010327825     1     3     4     4
 0.0000000413     1     3     4     5
 0.0051509481     1     3     4    10
 -0.0049055902     1     3     4    13
 0.0147844930     1     3     5     1
 0.0000000004     1     3     5     2
 0.0000000393     1     3     5     4
 -0.0189812377     1     3     5     5
 -0.0000001677     1     3     5    10
 0.0000001674     1     3     5    13
 -0.0171798535     1     3     6     6
 -0.0000000413     1     3     6     8
 0.0000001471     1     3     6     9
 0.0095355676     1     3     6    11
 -0.0206095059     1     3     6    12
 -0.0171798535     1     3     7     7
 0.0000001471     1     3     7     8
 0.0000000413     1     3     7     9
 -0.0206095059     1     3     7    11
 -0.0095355676     1     3     7    12
 -0.0000000383     1     3     8     6
 0.0000001362     1     3     8     7
 -0.0184183809     1     3     8     8
 0.0000001809     1     3     8    11
 0.0000000292     1     3     8    12
 0.0000001362     1     3     9     6
 0.0000000383     1     3     9     7
 -0.0184183809     1     3     9     9
 -0.0000000292     1     3     9    11
 0.0000001809     1     3     9    12
 0.0000013788     1     3    10     1
 -0.0855946352     1     3    10     2
 0.0047374735     1     3    10     4
 -0.0000001452     1     3    10     5
 -0.0188055593     1     3    10    10
 0.0192647731     1     3    10    13
 0.0061683106     1     3    11     6
 -0.0133317532     1     3    11     7
 0.0000001263     1     3    11     8
 -0.0000000204     1     3    11     9
 -0.0195406764     1     3    11    11
 -0.0133317532     1     3    12     6
 -0.0061683106     1     3    12     7
 0.0000000204     1     3    12     8
 0.0000001263     1     3    12     9
 -0.0195406764     1     3    12    12
 0.0000009294     1     3    13     1
 -0.0575481382     1     3    13     2
 -0.0033573916     1     3    13     4
 0.0000001048     1     3    13     5
 0.0135500809     1     3    13    10
 -0.0148987770     1     3    13    13
 0.0007865631     1     4     2     1
 0.0000000063     1     4     2     2
 0.0000043326     1     4     2     3
 -0.0000315136     1     4     2     5
 0.0000050517     1     4     3     1
 -0.3137422329     1     4     3     2
 0.0000000048     1     4     3     3
 0.0000000020     1     4     3     5
 0.0004134746     1     4     3    10
 -0.0015481986     1     4     3    13
 -0.5930168341     1     4     4     1
 -0.0000000050     1     4     4     2
 0.0010327825     1     4     4     3
 -0.0012707165     1     4     4     5
 -0.0000000115     1     4     4    10
 0.0000000219     1     4     4    13
 0.0000020226     1     4     5     1
 -0.1256298138     1     4     5     2
 -0.0000000393     1     4     5     3
 0.0000001455     1     4     5     5
 0.0200931110     1     4     5    10
 -0.0186966885     1     4     5    13
 0.0000001413     1     4     6     6
 0.0048680514     1     4     6     8
 -0.0173426574     1     4     6     9
 -0.0000000755     1     4     6    11
 0.0000001631     1     4     6    12
 0.0000001413     1     4     7     7
 -0.0173426574     1     4     7     8
 -0.0048680514     1     4     7     9
 0.0000001631     1     4     7    11
 0.0000000755     1     4     7    12
 0.0050315912     1     4     8     6
 -0.0179252754     1     4     8     7
 0.0000001651     1     4     8     8
 -0.0242661576     1     4     8    11
 -0.0039083648     1     4     8    12
 -0.0179252754     1     4     9     6
 -0.0050315912     1     4     9     7
 0.0000001651     1     4     9     9
 0.0039083648     1     4     9    11
 -0.0242661576     1     4     9    12
 -0.0479161927     1     4    10     1
 -0.0000000007     1     4    10     2
 -0.0047374735     1     4    10     3
 0.0189646727     1     4    10     5
 0.0000001844     1     4    10    10
 -0.0000001644     1     4    10    13
 -0.0000000538     1     4    11     6
 0.0000001163     1     4    11     7
 -0.0167749087     1     4    11     8
 0.0027018065     1     4    11     9
 0.0000001752     1     4    11    11
 0.0000001163     1     4    12     6
 0.0000000538     1     4    12     7
 -0.0027018065     1     4    12     8
 -0.0167749087     1     4    12     9
 0.0000001752     1     4    12    12
 -0.1146177018     1     4    13     1
 0.0000000020     1     4    13     2
 0.0033573916     1     4    13     3
 -0.0127658699     1     4    13     5
 -0.0000001227     1     4    13    10
 0.0000001100     1     4    13    13
 0.0000000379     1     5     2     1
 -0.0047175654     1     5     2     2
 0.0000315136     1     5     2     4
 -0.0001703635     1     5     2    10
 0.0001600366     1     5     2    13
 0.0147844930     1     5     3     1
 0.0000000004     1     5     3     2
 -0.0046110530     1     5     3     3
 -0.0000000020     1     5     3     4
 -0.0000000225     1     5     3    10
 0.0000000626     1     5     3    13
 0.0000020226     1     5     4     1
 -0.1255983002     1     5     4     2
 -0.0000000413     1     5     4     3
 0.0012707165     1     5     4     4
 0.0011284383     1     5     4    10
 -0.0059308186     1     5     4    13
 -0.5760767652     1     5     5     1
 0.0000000022     1     5     5     2
 0.0189812377     1     5     5     3
 -0.0000001455     1     5     5     4
 -0.0000000113     1     5     5    10
 -0.0000000341     1     5     5    13
 -0.0051352009     1     5     6     6
 -0.0000000012     1     5     6     8
 0.0000000043     1     5     6     9
 0.0011995686     1     5     6    11
 -0.0025926633     1     5     6    12
 -0.0051352009     1     5     7     7
 0.0000000043     1     5     7     8
 0.0000000012     1     5     7     9
 -0.0025926633     1     5     7    11
 -0.0011995686     1     5     7    12
 -0.0000000031     1     5     8     6
 0.0000000113     1     5     8     7
 -0.0051008289     1     5     8     8
 0.0000000292     1     5     8    11
 0.0000000047     1     5     8    12
 0.0000000113     1     5     9     6
 0.0000000031     1     5     9     7
 -0.0051008289     1     5     9     9
 -0.0000000047     1     5     9    11
 0.0000000292     1     5     9    12
 -0.0000046857     1     5    10     1
 0.2909164251     1     5    10     2
 0.0000001452     1     5    10     3
 -0.0189646727     1     5    10     4
 -0.0117591506     1     5    10    10
 0.0005269684     1     5    10    13
 0.0013598253     1     5    11     6
 -0.0029390308     1     5    11     7
 0.0000000231     1     5    11     8
 -0.0000000037     1     5    11     9
 -0.0065154352     1     5    11    11
 -0.0029390308     1     5    12     6
 -0.0013598253     1     5    12     7
 0.0000000037     1     5    12     8
 0.0000000231     1     5    12     9
 -0.0065154352     1     5    12    12
 0.0000028340     1     5    13     1
 -0.1757536345     1     5    13     2
 -0.0000001048     1     5    13     3
 0.0127658699     1     5    13     4
 0.0071530751     1     5    13    10
 0.0041314217     1     5    13    13
 -0.0000216159     1     6     2     8
 0.0000770079     1     6     2     9
 -0.0000000030     1     6     3     8
 0.0000000109     1     6     3     9
 0.0033672570     1     6     3    11
 -0.0072777527     1     6     3    12
 -0.0001635398     1     6     4     8
 0.0005826180     1     6     4     9
 -0.0000000217     1     6     4    11
 0.0000000468     1     6     4    12
 0.0000000019     1     6     5     8
 -0.0000000070     1     6     5     9
 -0.0001602567     1     6     5    11
 0.0003463675     1     6     5    12
 -0.5508762669     1     6     6     1
 0.0000000024     1     6     6     2
 0.0171798535     1     6     6     3
 -0.0000001413     1     6     6     4
 0.0051352009     1     6     6     5
 -0.0000000138     1     6     6    10
 -0.0000000628     1     6     6    13
 -0.0000013163     1     6     8     1
 0.0817380621     1     6     8     2
 0.0000000383     1     6     8     3
 -0.0050315912     1     6     8     4
 0.0000000031     1     6     8     5
 -0.0018806491     1     6     8    10
 -0.0009407870     1     6     8    13
 0.0000046894     1     6     9     1
 -0.2911956114     1     6     9     2
 -0.0000001362     1     6     9     3
 0.0179252754     1     6     9     4
 -0.0000000113     1     6     9     5
 0.0066998991     1     6     9    10
 0.0033515968     1     6     9    13
 0.0000379610     1     6    10     8
 -0.0001352377     1     6    10     9
 -0.0000000065     1     6    10    11
 0.0000000140     1     6    10    12
 0.0856629454     1     6    11     1
 -0.0000000012     1     6    11     2
 -0.0061683106     1     6    11     3
 0.0000000538     1     6    11     4
 -0.0013598253     1     6    11     5
 0.0000000158     1     6    11    10
 0.0000000242     1     6    11    13
 -0.1851458722     1     6    12     1
 0.0000000027     1     6    12     2
 0.0133317532     1     6    12     3
 -0.0000001163     1     6    12     4
 0.0029390308     1     6    12     5
 -0.0000000342     1     6    12    10
 -0.0000000521     1     6    12    13
 -0.0000107284     1     6    13     8
 0.0000382203     1     6    13     9
 0.0000000024     1     6    13    11
 -0.0000000052     1     6    13    12
 0.0000770079     1     7     2     8
 0.0000216159     1     7     2     9
 0.0000000109     1     7     3     8
 0.0000000030     1     7     3     9
 -0.0072777527     1     7     3    11
 -0.0033672570     1     7     3    12
 0.0005826180     1     7     4     8
 0.0001635398     1     7     4     9
 0.0000000468     1     7     4    11
 0.0000000217     1     7     4    12
 -0.0000000070     1     7     5     8
 -0.0000000019     1     7     5     9
 0.0003463675     1     7     5    11
 0.0001602567     1     7     5    12
 -0.5508762669     1     7     7     1
 0.0000000024     1     7     7     2
 0.0171798535     1     7     7     3
 -0.0000001413     1     7     7     4
 0.0051352009     1     7     7     5
 -0.0000000138     1     7     7    10
 -0.0000000628     1     7     7    13
 0.0000046894     1     7     8     1
 -0.2911956114     1     7     8     2
 -0.0000001362     1     7     8     3
 0.0179252754     1     7     8     4
 -0.0000000113     1     7     8     5
 0.0066998991     1     7     8    10
 0.0033515968     1     7     8    13
 0.0000013163     1     7     9     1
 -0.0817380621     1     7     9     2
 -0.0000000383     1     7     9     3
 0.0050315912     1     7     9     4
 -0.0000000031     1     7     9     5
 0.0018806491     1     7     9    10
 0.0009407870     1     7     9    13
 -0.0001352377     1     7    10     8
 -0.0000379610     1     7    10     9
 0.0000000140     1     7    10    11
 0.0000000065     1     7    10    12
 -0.1851458722     1     7    11     1
 0.0000000027     1     7    11     2
 0.0133317532     1     7    11     3
 -0.0000001163     1     7    11     4
 0.0029390308     1     7    11     5
 -0.0000000342     1     7    11    10
 -0.0000000521     1     7    11    13
 -0.0856629454     1     7    12     1
 0.0000000012     1     7    12     2
 0.0061683106     1     7    12     3
 -0.0000000538     1     7    12     4
 0.0013598253     1     7    12     5
 -0.0000000158     1     7    12    10
 -0.0000000242     1     7    12    13
 0.0000382203     1     7    13     8
 0.0000107284     1     7    13     9
 -0.0000000052     1     7    13    11
 -0.0000000024     1     7    13    12
 0.0000216159     1     8     2     6
 -0.0000770079     1     8     2     7
 -0.0000929743     1     8     2    11
 -0.0000149747     1     8     2    12
 0.0000000030     1     8     3     6
 -0.0000000109     1     8     3     7
 0.0000000546     1     8     3    11
 0.0000000088     1     8     3    12
 0.0001635398     1     8     4     6
 -0.0005826180     1     8     4     7
 -0.0074912489     1     8     4    11
 -0.0012065583     1     8     4    12
 -0.0000000019     1     8     5     6
 0.0000000070     1     8     5     7
 0.0000000061     1     8     5    11
 0.0000000010     1     8     5    12
 -0.0000013163     1     8     6     1
 0.0817596780     1     8     6     2
 0.0000000413     1     8     6     3
 -0.0048680514     1     8     6     4
 0.0000000012     1     8     6     5
 -0.0019186101     1     8     6    10
 -0.0009300586     1     8     6    13
 0.0000046894     1     8     7     1
 -0.2912726193     1     8     7     2
 -0.0000001471     1     8     7     3
 0.0173426574     1     8     7     4
 -0.0000000043     1     8     7     5
 0.0068351368     1     8     7    10
 0.0033133765     1     8     7    13
 -0.5705547348     1     8     8     1
 -0.0000000021     1     8     8     2
 0.0184183809     1     8     8     3
 -0.0000001651     1     8     8     4
 0.0051008289     1     8     8     5
 -0.0000000304     1     8     8    10
 -0.0000000574     1     8     8    13
 -0.0000379610     1     8    10     6
 0.0001352377     1     8    10     7
 -0.0018019547     1     8    10    11
 -0.0002902271     1     8    10    12
 0.0000034591     1     8    11     1
 -0.2147964848     1     8    11     2
 -0.0000001263     1     8    11     3
 0.0167749087     1     8    11     4
 -0.0000000231     1     8    11     5
 0.0054871285     1     8    11    10
 0.0069963946     1     8    11    13
 0.0000005572     1     8    12     1
 -0.0345956306     1     8    12     2
 -0.0000000204     1     8    12     3
 0.0027018065     1     8    12     4
 -0.0000000037     1     8    12     5
 0.0008837699     1     8    12    10
 0.0011268559     1     8    12    13
 0.0000107284     1     8    13     6
 -0.0000382203     1     8    13     7
 0.0006885504     1     8    13    11
 0.0001108996     1     8    13    12
 -0.0000770079     1     9     2     6
 -0.0000216159     1     9     2     7
 0.0000149747     1     9     2    11
 -0.0000929743     1     9     2    12
 -0.0000000109     1     9     3     6
 -0.0000000030     1     9     3     7
 -0.0000000088     1     9     3    11
 0.0000000546     1     9     3    12
 -0.0005826180     1     9     4     6
 -0.0001635398     1     9     4     7
 0.0012065583     1     9     4    11
 -0.0074912489     1     9     4    12
 0.0000000070     1     9     5     6
 0.0000000019     1     9     5     7
 -0.0000000010     1     9     5    11
 0.0000000061     1     9     5    12
 0.0000046894     1     9     6     1
 -0.2912726193     1     9     6     2
 -0.0000001471     1     9     6     3
 0.0173426574     1     9     6     4
 -0.0000000043     1     9     6     5
 0.0068351368     1     9     6    10
 0.0033133765     1     9     6    13
 0.0000013163     1     9     7     1
 -0.0817596780     1     9     7     2
 -0.0000000413     1     9     7     3
 0.0048680514     1     9     7     4
 -0.0000000012     1     9     7     5
 0.0019186101     1     9     7    10
 0.0009300586     1     9     7    13
 -0.5705547348     1     9     9     1
 -0.0000000021     1     9     9     2
 0.0184183809     1     9     9     3
 -0.0000001651     1     9     9     4
 0.0051008289     1     9     9     5
 -0.0000000304     1     9     9    10
 -0.0000000574     1     9     9    13
 0.0001352377     1     9    10     6
 0.0000379610     1     9    10     7
 0.0002902271     1     9    10    11
 -0.0018019547     1     9    10    12
 -0.0000005572     1     9    11     1
 0.0345956306     1     9    11     2
 0.0000000204     1     9    11     3
 -0.0027018065     1     9    11     4
 0.0000000037     1     9    11     5
 -0.0008837699     1     9    11    10
 -0.0011268559     1     9    11    13
 0.0000034591     1     9    12     1
 -0.2147964848     1     9    12     2
 -0.0000001263     1     9    12     3
 0.0167749087     1     9    12     4
 -0.0000000231     1     9    12     5
 0.0054871285     1     9    12    10
 0.0069963946     1     9    12    13
 -0.0000382203     1     9    13     6
 -0.0000107284     1     9    13     7
 -0.0001108996     1     9    13    11
 0.0006885504     1     9    13    12
 -0.0048757191     1    10     2     1
 -0.0000000392     1    10     2     2
 -0.0000252541     1    10     2     3
 0.0001703635     1    10     2     5
 0.0000013788     1    10     3     1
 -0.0856198893     1    10     3     2
 -0.0000000447     1    10     3     3
 -0.0004134746     1    10     3     4
 0.0000000225     1    10     3     5
 0.0057146922     1    10     3    13
 -0.0479161927     1    10     4     1
 -0.0000000007     1    10     4     2
 -0.0051509481     1    10     4     3
 0.0000000115     1    10     4     4
 -0.0011284383     1    10     4     5
 -0.0000000417     1    10     4    13
 -0.0000046857     1    10     5     1
 0.2910867886     1    10     5     2
 0.0000001677     1    10     5     3
 -0.0200931110     1    10     5     4
 0.0000000113     1    10     5     5
 -0.0066261067     1    10     5    13
 0.0000000138     1    10     6     6
 0.0019186101     1    10     6     8
 -0.0068351368     1    10     6     9
 -0.0000000223     1    10     6    11
 0.0000000482     1    10     6    12
 0.0000000138     1    10     7     7
 -0.0068351368     1    10     7     8
 -0.0019186101     1    10     7     9
 0.0000000482     1    10     7    11
 0.0000000223     1    10     7    12
 0.0018806491     1    10     8     6
 -0.0066998991     1    10     8     7
 0.0000000304     1    10     8     8
 -0.0072890832     1    10     8    11
 -0.0011739970     1    10     8    12
 -0.0066998991     1    10     9     6
 -0.0018806491     1    10     9     7
 0.0000000304     1    10     9     9
 0.0011739970     1    10     9    11
 -0.0072890832     1    10     9    12
 -0.6130028687     1    10    10     1
 -0.0000000022     1    10    10     2
 0.0188055593     1    10    10     3
 -0.0000001844     1    10    10     4
 0.0117591506     1    10    10     5
 -0.0000000957     1    10    10    13
 -0.0000000158     1    10    11     6
 0.0000000342     1    10    11     7
 -0.0054871285     1    10    11     8
 0.0008837699     1    10    11     9
 0.0000000311     1    10    11    11
 0.0000000342     1    10    12     6
 0.0000000158     1    10    12     7
 -0.0008837699     1    10    12     8
 -0.0054871285     1    10    12     9
 0.0000000311     1    10    12    12
 0.1775360401     1    10    13     1
 0.0000000004     1    10    13     2
 -0.0135500809     1    10    13     3
 0.0000001227     1    10    13     4
 -0.0071530751     1    10    13     5
 0.0000001006     1    10    13    13
 0.0000929743     1    11     2     8
 -0.0000149747     1    11     2     9
 -0.0033672570     1    11     3     6
 0.0072777527     1    11     3     7
 -0.0000000546     1    11     3     8
 0.0000000088     1    11     3     9
 0.0000000217     1    11     4     6
 -0.0000000468     1    11     4     7
 0.0074912489     1    11     4     8
 -0.0012065583     1    11     4     9
 0.0001602567     1    11     5     6
 -0.0003463675     1    11     5     7
 -0.0000000061     1    11     5     8
 0.0000000010     1    11     5     9
 0.0856629454     1    11     6     1
 -0.0000000012     1    11     6     2
 -0.0095355676     1    11     6     3
 0.0000000755     1    11     6     4
 -0.0011995686     1    11     6     5
 0.0000000223     1    11     6    10
 0.0000000218     1    11     6    13
 -0.1851458722     1    11     7     1
 0.0000000027     1    11     7     2
 0.0206095059     1    11     7     3
 -0.0000001631     1    11     7     4
 0.0025926633     1    11     7     5
 -0.0000000482     1    11     7    10
 -0.0000000469     1    11     7    13
 0.0000034591     1    11     8     1
 -0.2147035105     1    11     8     2
 -0.0000001809     1    11     8     3
 0.0242661576     1    11     8     4
 -0.0000000292     1    11     8     5
 0.0072890832     1    11     8    10
 0.0063078442     1    11     8    13
 -0.0000005572     1    11     9     1
 0.0345806559     1    11     9     2
 0.0000000292     1    11     9     3
 -0.0039083648     1    11     9     4
 0.0000000047     1    11     9     5
 -0.0011739970     1    11     9    10
 -0.0010159563     1    11     9    13
 0.0000000065     1    11    10     6
 -0.0000000140     1    11    10     7
 0.0018019547     1    11    10     8
 -0.0002902271     1    11    10     9
 -0.5594849661     1    11    11     1
 0.0000000062     1    11    11     2
 0.0195406764     1    11    11     3
 -0.0000001752     1    11    11     4
 0.0065154352     1    11    11     5
 -0.0000000311     1    11    11    10
 -0.0000000945     1    11    11    13
 -0.0000000024     1    11    13     6
 0.0000000052     1    11    13     7
 -0.0006885504     1    11    13     8
 0.0001108996     1    11    13     9
 0.0000149747     1    12     2     8
 0.0000929743     1    12     2     9
 0.0072777527     1    12     3     6
 0.0033672570     1    12     3     7
 -0.0000000088     1    12     3     8
 -0.0000000546     1    12     3     9
 -0.0000000468     1    12     4     6
 -0.0000000217     1    12     4     7
 0.0012065583     1    12     4     8
 0.0074912489     1    12     4     9
 -0.0003463675     1    12     5     6
 -0.0001602567     1    12     5     7
 -0.0000000010     1    12     5     8
 -0.0000000061     1    12     5     9
 -0.1851458722     1    12     6     1
 0.0000000027     1    12     6     2
 0.0206095059     1    12     6     3
 -0.0000001631     1    12     6     4
 0.0025926633     1    12     6     5
 -0.0000000482     1    12     6    10
 -0.0000000469     1    12     6    13
 -0.0856629454     1    12     7     1
 0.0000000012     1    12     7     2
 0.0095355676     1    12     7     3
 -0.0000000755     1    12     7     4
 0.0011995686     1    12     7     5
 -0.0000000223     1    12     7    10
 -0.0000000218     1    12     7    13
 0.0000005572     1    12     8     1
 -0.0345806559     1    12     8     2
 -0.0000000292     1    12     8     3
 0.0039083648     1    12     8     4
 -0.0000000047     1    12     8     5
 0.0011739970     1    12     8    10
 0.0010159563     1    12     8    13
 0.0000034591     1    12     9     1
 -0.2147035105     1    12     9     2
 -0.0000001809     1    12     9     3
 0.0242661576     1    12     9     4
 -0.0000000292     1    12     9     5
 0.0072890832     1    12     9    10
 0.0063078442     1    12     9    13
 -0.0000000140     1    12    10     6
 -0.0000000065     1    12    10     7
 0.0002902271     1    12    10     8
 0.0018019547     1    12    10     9
 -0.5594849661     1    12    12     1
 0.0000000062     1    12    12     2
 0.0195406764     1    12    12     3
 -0.0000001752     1    12    12     4
 0.0065154352     1    12    12     5
 -0.0000000311     1    12    12    10
 -0.0000000945     1    12    12    13
 0.0000000052     1    12    13     6
 0.0000000024     1    12    13     7
 -0.0001108996     1    12    13     8
 -0.0006885504     1    12    13     9
 0.0045229140     1    13     2     1
 0.0000000364     1    13     2     2
 0.0000239015     1    13     2     3
 -0.0001600366     1    13     2     5
 0.0000009294     1    13     3     1
 -0.0575242367     1    13     3     2
 0.0000000423     1    13     3     3
 0.0015481986     1    13     3     4
 -0.0000000626     1    13     3     5
 -0.0057146922     1    13     3    10
 -0.1146177018     1    13     4     1
 0.0000000020     1    13     4     2
 0.0049055902     1    13     4     3
 -0.0000000219     1    13     4     4
 0.0059308186     1    13     4     5
 0.0000000417     1    13     4    10
 0.0000028340     1    13     5     1
 -0.1759136711     1    13     5     2
 -0.0000001674     1    13     5     3
 0.0186966885     1    13     5     4
 0.0000000341     1    13     5     5
 0.0066261067     1    13     5    10
 0.0000000628     1    13     6     6
 0.0009300586     1    13     6     8
 -0.0033133765     1    13     6     9
 -0.0000000218     1    13     6    11
 0.0000000469     1    13     6    12
 0.0000000628     1    13     7     7
 -0.0033133765     1    13     7     8
 -0.0009300586     1    13     7     9
 0.0000000469     1    13     7    11
 0.0000000218     1    13     7    12
 0.0009407870     1    13     8     6
 -0.0033515968     1    13     8     7
 0.0000000574     1    13     8     8
 -0.0063078442     1    13     8    11
 -0.0010159563     1    13     8    12
 -0.0033515968     1    13     9     6
 -0.0009407870     1    13     9     7
 0.0000000574     1    13     9     9
 0.0010159563     1    13     9    11