&FCI NORB= 13,NELEC= 14,MS2=0,
 ORBSYM=1,1,1,1,1,1,1,1,1,1,1,1,1
 ISYM=1,
&END
 0.1667468560     1     1     2     2
 -0.0000767771     1     1     2     4
 -0.0017977265     1     1     2    10
 0.5411545226     1     1     3     3
 -0.0000000201     1     1     3     4
 0.0024130640     1     1     3     5
 0.0000000007     1     1     3    10
 0.0672687522     1     1     3    11
 -0.0000767771     1     1     4     2
 -0.0000000201     1     1     4     3
 0.5445421539     1     1     4     4
 0.0000000020     1     1     4     5
 -0.0172495531     1     1     4    10
 -0.0000000035     1     1     4    11
 0.0024130640     1     1     5     3
 0.0000000020     1     1     5     4
 0.5025840187     1     1     5     5
 0.0000000183     1     1     5    10
 0.1774860723     1     1     5    11
 0.5117320313     1     1     6     6
 -0.0000000004     1     1     6     8
 0.0000000186     1     1     6     9
 -0.2038355386     1     1     6    12
 -0.0001721322     1     1     6    13
 0.5117320313     1     1     7     7
 -0.0000000188     1     1     7     8
 -0.0000000002     1     1     7     9
 0.0001721322     1     1     7    12
 -0.2038355386     1     1     7    13
 -0.0000000004     1     1     8     6
 -0.0000000188     1     1     8     7
 0.5163119918     1     1     8     8
 -0.0000000005     1     1     8    12
 0.0000000100     1     1     8    13
 0.0000000186     1     1     9     6
 -0.0000000002     1     1     9     7
 0.5163119918     1     1     9     9
 -0.0000000122     1     1     9    12
 0.0000000008     1     1     9    13
 -0.0017977265     1     1    10     2
 0.0000000007     1     1    10     3
 -0.0172495531     1     1    10     4
 0.0000000183     1     1    10     5
 0.5303966396     1     1    10    10
 0.0000000118     1     1    10    11
 0.0672687522     1     1    11     3
 -0.0000000035     1     1    11     4
 0.1774860723     1     1    11     5
 0.0000000118     1     1    11    10
 0.5220021477     1     1    11    11
 -0.2038355386     1     1    12     6
 0.0001721322     1     1    12     7
 -0.0000000005     1     1    12     8
 -0.0000000122     1     1    12     9
 0.5021665529     1     1    12    12
 -0.0001721322     1     1    13     6
 -0.2038355386     1     1    13     7
 0.0000000100     1     1    13     8
 0.0000000008     1     1    13     9
 0.5021665529     1     1    13    13
 -0.1667468560     1     2     2     1
 -0.0000275408     1     2     2     3
 -0.0017389604     1     2     2     5
 -0.0019368653     1     2     2    11
 -0.0000000001     1     2     3     3
 0.3761401448     1     2     3     4
 -0.0131600002     1     2     3    10
 0.0000767771     1     2     4     1
 0.3761401999     1     2     4     3
 0.0000000001     1     2     4     4
 -0.0367290599     1     2     4     5
 0.0665001940     1     2     4    11
 -0.0367313666     1     2     5     4
 -0.0000000002     1     2     5     5
 -0.3413573826     1     2     5    10
 -0.0000000001     1     2     5    11
 0.0000000049     1     2     6     6
 -0.0000000029     1     2     6     7
 0.0058459367     1     2     6     8
 -0.3498061143     1     2     6     9
 -0.0000000017     1     2     6    12
 0.0000000010     1     2     6    13
 -0.0000000029     1     2     7     6
 -0.0000000046     1     2     7     7
 0.3498061143     1     2     7     8
 0.0058459367     1     2     7     9
 0.0000000010     1     2     7    12
 0.0000000017     1     2     7    13
 0.0058456183     1     2     8     6
 0.3497870658     1     2     8     7
 0.0000000046     1     2     8     8
 -0.0000000026     1     2     8     9
 -0.0032631877     1     2     8    12
 -0.2056556075     1     2     8    13
 -0.3497870658     1     2     9     6
 0.0058456183     1     2     9     7
 -0.0000000026     1     2     9     8
 -0.0000000047     1     2     9     9
 0.2056556075     1     2     9    12
 -0.0032631877     1     2     9    13
 0.0017977265     1     2    10     1
 -0.0131586305     1     2    10     3
 -0.3413198892     1     2    10     5
 0.0000000002     1     2    10    10
 -0.2226655829     1     2    10    11
 0.0664976210     1     2    11     4
 -0.0000000001     1     2    11     5
 -0.2227079028     1     2    11    10
 -0.0000000017     1     2    12     6
 0.0000000010     1     2    12     7
 -0.0032635284     1     2    12     8
 0.2056770814     1     2    12     9
 0.0000000009     1     2    12    12
 -0.0000000006     1     2    12    13
 0.0000000010     1     2    13     6
 0.0000000017     1     2    13     7
 -0.2056770814     1     2    13     8
 -0.0032635284     1     2    13     9
 -0.0000000006     1     2    13    12
 -0.0000000009     1     2    13    13
 0.0000275408     1     3     2     2
 -0.0000000551     1     3     2     4
 -0.0000013697     1     3     2    10
 -0.5411545226     1     3     3     1
 0.0000000001     1     3     3     2
 -0.0010036184     1     3     3     5
 -0.0014680121     1     3     3    11
 0.0000000201     1     3     4     1
 -0.3761401999     1     3     4     2
 -0.0000830960     1     3     4     4
 -0.0015480040     1     3     4    10
 -0.0024130640     1     3     5     1
 -0.0173648964     1     3     5     5
 -0.0000000005     1     3     5    10
 -0.0209560918     1     3     5    11
 -0.0184678659     1     3     6     6
 -0.0000000005     1     3     6     9
 0.0229656967     1     3     6    12
 0.0000193938     1     3     6    13
 -0.0184678659     1     3     7     7
 0.0000000005     1     3     7     8
 -0.0000193938     1     3     7    12
 0.0229656967     1     3     7    13
 0.0000000005     1     3     8     7
 -0.0186400486     1     3     8     8
 -0.0000000005     1     3     8    13
 -0.0000000005     1     3     9     6
 -0.0186400486     1     3     9     9
 0.0000000007     1     3     9    12
 -0.0000000001     1     3     9    13
 -0.0000000007     1     3    10     1
 0.0131586305     1     3    10     2
 -0.0008033027     1     3    10     4
 -0.0000000005     1     3    10     5
 -0.0192826255     1     3    10    10
 -0.0000000006     1     3    10    11
 -0.0672687522     1     3    11     1
 -0.0142193416     1     3    11     5
 -0.0000000004     1     3    11    10
 -0.0177438990     1     3    11    11
 0.0154788895     1     3    12     6
 -0.0000130714     1     3    12     7
 0.0000000005     1     3    12     9
 -0.0198614446     1     3    12    12
 0.0000130714     1     3    13     6
 0.0154788895     1     3    13     7
 -0.0000000003     1     3    13     8
 -0.0198614446     1     3    13    13
 0.0000767771     1     4     2     1
 0.0000000551     1     4     2     3
 0.0000023067     1     4     2     5
 0.0000025730     1     4     2    11
 0.0000000201     1     4     3     1
 -0.3761401448     1     4     3     2
 -0.0007447013     1     4     3    10
 -0.5445421539     1     4     4     1
 -0.0000000001     1     4     4     2
 0.0000830960     1     4     4     3
 -0.0001037476     1     4     4     5
 -0.0000992015     1     4     4    11
 -0.0000000020     1     4     5     1
 0.0367313666     1     4     5     2
 0.0000000004     1     4     5     5
 0.0183454215     1     4     5    10
 0.0000000006     1     4     5    11
 0.0000000003     1     4     6     6
 0.0000000001     1     4     6     7
 -0.0003103654     1     4     6     8
 0.0185714830     1     4     6     9
 -0.0000000004     1     4     6    12
 -0.0000000001     1     4     6    13
 0.0000000001     1     4     7     6
 0.0000000008     1     4     7     7
 -0.0185714830     1     4     7     8
 -0.0003103654     1     4     7     9
 -0.0000000001     1     4     7    12
 -0.0000000008     1     4     7    13
 -0.0003133908     1     4     8     6
 -0.0187525158     1     4     8     7
 0.0000000003     1     4     8     8
 0.0000000001     1     4     8     9
 0.0003707946     1     4     8    12
 0.0233685528     1     4     8    13
 0.0187525158     1     4     9     6
 -0.0003133908     1     4     9     7
 0.0000000001     1     4     9     8
 0.0000000008     1     4     9     9
 -0.0233685528     1     4     9    12
 0.0003707946     1     4     9    13
 0.0172495531     1     4    10     1
 0.0008033027     1     4    10     3
 0.0183755127     1     4    10     5
 0.0000000005     1     4    10    10
 0.0224911741     1     4    10    11
 0.0000000035     1     4    11     1
 -0.0664976210     1     4    11     2
 0.0000000004     1     4    11     5
 0.0157194429     1     4    11    10
 0.0000000005     1     4    11    11
 -0.0000000003     1     4    12     6
 0.0002526922     1     4    12     8
 -0.0159253983     1     4    12     9
 0.0000000005     1     4    12    12
 -0.0000000005     1     4    13     7
 0.0159253983     1     4    13     8
 0.0002526922     1     4    13     9
 0.0000000005     1     4    13    13
 0.0017389604     1     5     2     2
 -0.0000023067     1     5     2     4
 -0.0000374934     1     5     2    10
 -0.0024130640     1     5     3     1
 0.0010036184     1     5     3     3
 -0.0067367502     1     5     3    11
 -0.0000000020     1     5     4     1
 0.0367290599     1     5     4     2
 0.0001037476     1     5     4     4
 -0.0000300912     1     5     4    10
 0.0000000002     1     5     4    11
 -0.5025840187     1     5     5     1
 0.0000000002     1     5     5     2
 0.0173648964     1     5     5     3
 -0.0000000004     1     5     5     4
 0.0029321287     1     5     5    11
 0.0015562674     1     5     6     6
 -0.0008127015     1     5     6    12
 -0.0000006863     1     5     6    13
 0.0015562674     1     5     7     7
 0.0000006863     1     5     7    12
 -0.0008127015     1     5     7    13
 0.0015739016     1     5     8     8
 0.0015739016     1     5     9     9
 -0.0000000183     1     5    10     1
 0.3413198892     1     5    10     2
 0.0000000005     1     5    10     3
 -0.0183755127     1     5    10     4
 0.0033877498     1     5    10    10
 0.0000000002     1     5    10    11
 -0.1774860723     1     5    11     1
 0.0000000001     1     5    11     2
 0.0142193416     1     5    11     3
 -0.0000000004     1     5    11     4
 0.0000000001     1     5    11    10
 0.0091470682     1     5    11    11
 -0.0008867107     1     5    12     6
 0.0000007488     1     5    12     7
 0.0019579170     1     5    12    12
 -0.0000007488     1     5    13     6
 -0.0008867107     1     5    13     7
 0.0019579170     1     5    13    13
 0.0000003184     1     6     2     8
 -0.0000190485     1     6     2     9
 0.0074868072     1     6     3    12
 0.0000063224     1     6     3    13
 0.0000030254     1     6     4     8
 -0.0001810328     1     6     4     9
 -0.0000000001     1     6     4    12
 -0.0000000001     1     6     4    13
 0.0000740092     1     6     5    12
 0.0000000625     1     6     5    13
 -0.5117320313     1     6     6     1
 -0.0000000049     1     6     6     2
 0.0184678659     1     6     6     3
 -0.0000000003     1     6     6     4
 -0.0015562674     1     6     6     5
 0.0034687242     1     6     6    11
 0.0000000029     1     6     7     2
 -0.0000000001     1     6     7     4
 0.0000000004     1     6     8     1
 -0.0058456183     1     6     8     2
 0.0003133908     1     6     8     4
 -0.0000327191     1     6     8    10
 -0.0000000186     1     6     9     1
 0.3497870658     1     6     9     2
 0.0000000005     1     6     9     3
 -0.0187525158     1     6     9     4
 0.0019578247     1     6     9    10
 0.0000000002     1     6     9    11
 0.0000000200     1     6    10     8
 -0.0000012004     1     6    10     9
 -0.0007659488     1     6    11    12
 -0.0000006469     1     6    11    13
 0.2038355386     1     6    12     1
 0.0000000017     1     6    12     2
 -0.0154788895     1     6    12     3
 0.0000000003     1     6    12     4
 0.0008867107     1     6    12     5
 -0.0066083073     1     6    12    11
 0.0001721322     1     6    13     1
 -0.0000000010     1     6    13     2
 -0.0000130714     1     6    13     3
 0.0000007488     1     6    13     5
 -0.0000055805     1     6    13    11
 0.0000190485     1     7     2     8
 0.0000003184     1     7     2     9
 -0.0000063224     1     7     3    12
 0.0074868072     1     7     3    13
 0.0001810328     1     7     4     8
 0.0000030254     1     7     4     9
 -0.0000000001     1     7     4    12
 -0.0000000003     1     7     4    13
 -0.0000000625     1     7     5    12
 0.0000740092     1     7     5    13
 0.0000000029     1     7     6     2
 -0.0000000001     1     7     6     4
 -0.5117320313     1     7     7     1
 0.0000000046     1     7     7     2
 0.0184678659     1     7     7     3
 -0.0000000008     1     7     7     4
 -0.0015562674     1     7     7     5
 0.0034687242     1     7     7    11
 0.0000000188     1     7     8     1
 -0.3497870658     1     7     8     2
 -0.0000000005     1     7     8     3
 0.0187525158     1     7     8     4
 -0.0019578247     1     7     8    10
 -0.0000000002     1     7     8    11
 0.0000000002     1     7     9     1
 -0.0058456183     1     7     9     2
 0.0003133908     1     7     9     4
 -0.0000327191     1     7     9    10
 0.0000012004     1     7    10     8
 0.0000000200     1     7    10     9
 0.0000006469     1     7    11    12
 -0.0007659488     1     7    11    13
 -0.0001721322     1     7    12     1
 -0.0000000010     1     7    12     2
 0.0000130714     1     7    12     3
 -0.0000007488     1     7    12     5
 0.0000055805     1     7    12    11
 0.2038355386     1     7    13     1
 -0.0000000017     1     7    13     2
 -0.0154788895     1     7    13     3
 0.0000000005     1     7    13     4
 0.0008867107     1     7    13     5
 -0.0066083073     1     7    13    11
 -0.0000003184     1     8     2     6
 -0.0000190485     1     8     2     7
 0.0000003407     1     8     2    12
 0.0000214739     1     8     2    13
 -0.0000000002     1     8     3    13
 -0.0000030254     1     8     4     6
 -0.0001810328     1     8     4     7
 0.0001181024     1     8     4    12
 0.0074431545     1     8     4    13
 0.0000000004     1     8     6     1
 -0.0058459367     1     8     6     2
 0.0003103654     1     8     6     4
 -0.0000327391     1     8     6    10
 0.0000000188     1     8     7     1
 -0.3498061143     1     8     7     2
 -0.0000000005     1     8     7     3
 0.0185714830     1     8     7     4
 -0.0019590251     1     8     7    10
 -0.0000000002     1     8     7    11
 -0.5163119918     1     8     8     1
 -0.0000000046     1     8     8     2
 0.0186400486     1     8     8     3
 -0.0000000003     1     8     8     4
 -0.0015739016     1     8     8     5
 0.0039184369     1     8     8    11
 0.0000000026     1     8     9     2
 -0.0000000001     1     8     9     4
 -0.0000000200     1     8    10     6
 -0.0000012004     1     8    10     7
 -0.0000056008     1     8    10    12
 -0.0003529752     1     8    10    13
 0.0000000005     1     8    12     1
 0.0032635284     1     8    12     2
 -0.0002526922     1     8    12     4
 0.0000183377     1     8    12    10
 -0.0000000100     1     8    13     1
 0.2056770814     1     8    13     2
 0.0000000003     1     8    13     3
 -0.0159253983     1     8    13     4
 0.0011556952     1     8    13    10
 0.0000000001     1     8    13    11
 0.0000190485     1     9     2     6
 -0.0000003184     1     9     2     7
 -0.0000214739     1     9     2    12
 0.0000003407     1     9     2    13
 0.0000000002     1     9     3    12
 -0.0000000001     1     9     3    13
 0.0001810328     1     9     4     6
 -0.0000030254     1     9     4     7
 -0.0074431545     1     9     4    12
 0.0001181024     1     9     4    13
 -0.0000000186     1     9     6     1
 0.3498061143     1     9     6     2
 0.0000000005     1     9     6     3
 -0.0185714830     1     9     6     4
 0.0019590251     1     9     6    10
 0.0000000002     1     9     6    11
 0.0000000002     1     9     7     1
 -0.0058459367     1     9     7     2
 0.0003103654     1     9     7     4
 -0.0000327391     1     9     7    10
 0.0000000026     1     9     8     2
 -0.0000000001     1     9     8     4
 -0.5163119918     1     9     9     1
 0.0000000047     1     9     9     2
 0.0186400486     1     9     9     3
 -0.0000000008     1     9     9     4
 -0.0015739016     1     9     9     5
 0.0039184369     1     9     9    11
 0.0000012004     1     9    10     6
 -0.0000000200     1     9    10     7
 0.0003529752     1     9    10    12
 -0.0000056008     1     9    10    13
 0.0000000122     1     9    12     1
 -0.2056770814     1     9    12     2
 -0.0000000005     1     9    12     3
 0.0159253983     1     9    12     4
 -0.0011556952     1     9    12    10
 -0.0000000002     1     9    12    11
 -0.0000000008     1     9    13     1
 0.0032635284     1     9    13     2
 -0.0002526922     1     9    13     4
 0.0000183377     1     9    13    10
 0.0017977265     1    10     2     1
 0.0000013697     1    10     2     3
 0.0000374934     1    10     2     5
 0.0000423199     1    10     2    11
 -0.0000000007     1    10     3     1
 0.0131600002     1    10     3     2
 0.0007447013     1    10     3     4
 -0.0000000002     1    10     3    11
 0.0172495531     1    10     4     1
 0.0015480040     1    10     4     3
 0.0000300912     1    10     4     5
 0.0067717312     1    10     4    11
 -0.0000000183     1    10     5     1
 0.3413573826     1    10     5     2
 0.0000000005     1    10     5     3
 -0.0183454215     1    10     5     4
 0.0000000001     1    10     5    11
 0.0000327391     1    10     6     8
 -0.0019590251     1    10     6     9
 0.0019590251     1    10     7     8
 0.0000327391     1    10     7     9
 0.0000327191     1    10     8     6
 0.0019578247     1    10     8     7
 -0.0000239385     1    10     8    12
 -0.0015086704     1    10     8    13
 -0.0019578247     1    10     9     6
 0.0000327191     1    10     9     7
 0.0015086704     1    10     9    12
 -0.0000239385     1    10     9    13
 -0.5303966396     1    10    10     1
 -0.0000000002     1    10    10     2
 0.0192826255     1    10    10     3
 -0.0000000005     1    10    10     4
 -0.0033877498     1    10    10     5
 0.0022476404     1    10    10    11
 -0.0000000118     1    10    11     1
 0.2227079028     1    10    11     2
 0.0000000004     1    10    11     3
 -0.0157194429     1    10    11     4
 -0.0000000001     1    10    11     5
 0.0000000002     1    10    11    11
 -0.0000183377     1    10    12     8
 0.0011556952     1    10    12     9
 -0.0011556952     1    10    13     8
 -0.0000183377     1    10    13     9
 0.0019368653     1    11     2     2
 -0.0000025730     1    11     2     4
 -0.0000423199     1    11     2    10
 -0.0672687522     1    11     3     1
 0.0014680121     1    11     3     3
 0.0067367502     1    11     3     5
 0.0000000002     1    11     3    10
 0.0000000035     1    11     4     1
 -0.0665001940     1    11     4     2
 0.0000992015     1    11     4     4
 -0.0000000002     1    11     4     5
 -0.0067717312     1    11     4    10
 -0.1774860723     1    11     5     1
 0.0000000001     1    11     5     2
 0.0209560918     1    11     5     3
 -0.0000000006     1    11     5     4
 -0.0029321287     1    11     5     5
 -0.0000000001     1    11     5    10
 -0.0034687242     1    11     6     6
 -0.0000000002     1    11     6     9
 0.0058423585     1    11     6    12
 0.0000049336     1    11     6    13
 -0.0034687242     1    11     7     7
 0.0000000002     1    11     7     8
 -0.0000049336     1    11     7    12
 0.0058423585     1    11     7    13
 0.0000000002     1    11     8     7
 -0.0039184369     1    11     8     8
 -0.0000000001     1    11     8    13
 -0.0000000002     1    11     9     6
 -0.0039184369     1    11     9     9
 0.0000000002     1    11     9    12
 -0.0000000118     1    11    10     1
 0.2226655829     1    11    10     2
 0.0000000006     1    11    10     3
 -0.0224911741     1    11    10     4
 -0.0000000002     1    11    10     5
 -0.0022476404     1    11    10    10
 -0.5220021477     1    11    11     1
 0.0177438990     1    11    11     3
 -0.0000000005     1    11    11     4
 -0.0091470682     1    11    11     5
 -0.0000000002     1    11    11    10
 0.0066083073     1    11    12     6
 -0.0000055805     1    11    12     7
 0.0000000002     1    11    12     9
 -0.0074441940     1    11    12    12
 0.0000055805     1    11    13     6
 0.0066083073     1    11    13     7
 -0.0000000001     1    11    13     8
 -0.0074441940     1    11    13    13
 -0.0000003407     1    12     2     8
 0.0000214739     1    12     2     9
 -0.0074868072     1    12     3     6
 0.0000063224     1    12     3     7
 -0.0000000002     1    12     3     9
 0.0000000001     1    12     4     6
 0.0000000001     1    12     4     7
 -0.0001181024     1    12     4     8
 0.0074431545     1    12     4     9
 -0.0000740092     1    12     5     6
 0.0000000625     1    12     5     7
 0.2038355386     1    12     6     1
 0.0000000017     1    12     6     2
 -0.0229656967     1    12     6     3
 0.0000000004     1    12     6     4
 0.0008127015     1    12     6     5
 -0.0058423585     1    12     6    11
 -0.0001721322     1    12     7     1
 -0.0000000010     1    12     7     2
 0.0000193938     1    12     7     3
 0.0000000001     1    12     7     4
 -0.0000006863     1    12     7     5
 0.0000049336     1    12     7    11
 0.0000000005     1    12     8     1
 0.0032631877     1    12     8     2
 -0.0003707946     1    12     8     4
 0.0000239385     1    12     8    10
 0.0000000122     1    12     9     1
 -0.2056556075     1    12     9     2
 -0.0000000007     1    12     9     3
 0.0233685528     1    12     9     4
 -0.0015086704     1    12     9    10
 -0.0000000002     1    12     9    11
 0.0000056008     1    12    10     8
 -0.0003529752     1    12    10     9
 0.0007659488     1    12    11     6
 -0.0000006469     1    12    11     7
 -0.5021665529     1    12    12     1
 -0.0000000009     1    12    12     2
 0.0198614446     1    12    12     3
 -0.0000000005     1    12    12     4
 -0.0019579170     1    12    12     5
 0.0074441940     1    12    12    11
 0.0000000006     1    12    13     2
 -0.0000214739     1    13     2     8
 -0.0000003407     1    13     2     9
 -0.0000063224     1    13     3     6
 -0.0074868072     1    13     3     7
 0.0000000002     1    13     3     8
 0.0000000001     1    13     3     9
 0.0000000001     1    13     4     6
 0.0000000003     1    13     4     7
 -0.0074431545     1    13     4     8
 -0.0001181024     1    13     4     9
 -0.0000000625     1    13     5     6
 -0.0000740092     1    13     5     7
 0.0001721322     1    13     6     1
 -0.0000000010     1    13     6     2
 -0.0000193938     1    13     6     3
 0.0000000001     1    13     6     4
 0.0000006863     1    13     6     5
 -0.0000049336     1    13     6    11
 0.2038355386     1    13     7     1
 -0.0000000017     1    13     7     2
 -0.0229656967     1    13     7     3
 0.0000000008     1    13     7     4
 0.0008127015     1    13     7     5
 -0.0058423585     1    13     7    11
 -0.0000000100     1    13     8     1
 0.2056556075     1    13     8     2
 0.0000000005     1    13     8     3
 -0.0233685528     1    13     8     4
 0.0015086704     1    13     8    10
 0.0000000001     1    13     8    11
 -0.0000000008     1    13     9     1
 0.0032631877     1    13     9     2
 0.0000000001     1    13     9     3
 -0.0003707946     1    13     9     4
 0.0000239385     1    13     9    10
 0.0003529752     1    13    10     8
 0.0000056008     1    13    10     9
 0.0000006469     1    13    11     6
 0.0007659488     1    13    11     7
 0.0000000006     1    13    12     2
 -0.5021665529     1    13    13     1
 0.0000000009     1    13    13     2
 0.0198614446     1    13    13     3
 -0.0000000005     1    13    13     4
 -0.0019579170     1    13    13     5
 0.0074441940     1    13    13    11
 -0.1667468560     2     1     1     2
 0.0000767771     2     1     1     4
 0.0017977265     2     1     1    10
 -0.0000275408     2     1     3     2
 -0.0000000001     2     1     3     3
 0.3761401999     2     1     3     4
 -0.0131586305     2     1     3    10
 0.3761401448     2     1     4     3
 0.0000000001     2     1     4     4
 -0.0367313666     2     1     4     5
 0.0664976210     2     1     4    11
 -0.0017389604     2     1     5     2
 -0.0367290599     2     1     5     4
 -0.0000000002     2     1     5     5
 -0.3413198892     2     1     5    10
 -0.0000000001     2     1     5    11
 0.0000000049     2     1     6     6
 -0.0000000029     2     1     6     7
 0.0058456183     2     1     6     8
 -0.3497870658     2     1     6     9
 -0.0000000017     2     1     6    12
 0.0000000010     2     1     6    13
 -0.0000000029     2     1     7     6
 -0.0000000046     2     1     7     7
 0.3497870658     2     1     7     8
 0.0058456183     2     1     7     9
 0.0000000010     2     1     7    12
 0.0000000017     2     1     7    13
 0.0058459367     2     1     8     6
 0.3498061143     2     1     8     7
 0.0000000046     2     1     8     8
 -0.0000000026     2     1     8     9
 -0.0032635284     2     1     8    12
 -0.2056770814     2     1     8    13
 -0.3498061143     2     1     9     6
 0.0058459367     2     1     9     7
 -0.0000000026     2     1     9     8
 -0.0000000047     2     1     9     9
 0.2056770814     2     1     9    12
 -0.0032635284     2     1     9    13
 -0.0131600002     2     1    10     3
 -0.3413573826     2     1    10     5
 0.0000000002     2     1    10    10
 -0.2227079028     2     1    10    11
 -0.0019368653     2     1    11     2
 0.0665001940     2     1    11     4
 -0.0000000001     2     1    11     5
 -0.2226655829     2     1    11    10
 -0.0000000017     2     1    12     6
 0.0000000010     2     1    12     7
 -0.0032631877     2     1    12     8
 0.2056556075     2     1    12     9
 0.0000000009     2     1    12    12
 -0.0000000006     2     1    12    13
 0.0000000010     2     1    13     6
 0.0000000017     2     1    13     7
 -0.2056556075     2     1    13     8
 -0.0032631877     2     1    13     9
 -0.0000000006     2     1    13    12
 -0.0000000009     2     1    13    13
 0.1667468560     2     2     1     1
 0.0000275408     2     2     1     3
 0.0017389604     2     2     1     5
 0.0019368653     2     2     1    11
 0.0000275408     2     2     3     1
 0.5411547276     2     2     3     3
 0.0000000201     2     2     3     4
 0.0024148767     2     2     3     5
 -0.0000000007     2     2     3    10
 0.0672709458     2     2     3    11
 0.0000000201     2     2     4     3
 0.5445421760     2     2     4     4
 -0.0000000020     2     2     4     5
 -0.0172526165     2     2     4    10
 0.0000000036     2     2     4    11
 0.0017389604     2     2     5     1
 0.0024148767     2     2     5     3
 -0.0000000020     2     2     5     4
 0.5026195454     2     2     5     5
 -0.0000000183     2     2     5    10
 0.1775264409     2     2     5    11
 0.5117515624     2     2     6     6
 0.0000000002     2     2     6     8
 -0.0000000188     2     2     6     9
 -0.2038574720     2     2     6    12
 -0.0001721507     2     2     6    13
 0.5117515624     2     2     7     7
 0.0000000186     2     2     7     8
 0.0000000004     2     2     7     9
 0.0001721507     2     2     7    12
 -0.2038574720     2     2     7    13
 0.0000000002     2     2     8     6
 0.0000000186     2     2     8     7
 0.5162934260     2     2     8     8
 -0.0000000008     2     2     8    12
 -0.0000000121     2     2     8    13
 -0.0000000188     2     2     9     6
 0.0000000004     2     2     9     7
 0.5162934260     2     2     9     9
 0.0000000099     2     2     9    12
 0.0000000005     2     2     9    13
 -0.0000000007     2     2    10     3
 -0.0172526165     2     2    10     4
 -0.0000000183     2     2    10     5
 0.5303572374     2     2    10    10
 -0.0000000119     2     2    10    11
 0.0019368653     2     2    11     1
 0.0672709458     2     2    11     3
 0.0000000036     2     2    11     4
 0.1775264409     2     2    11     5
 -0.0000000119     2     2    11    10
 0.5220479819     2     2    11    11
 -0.2038574720     2     2    12     6
 0.0001721507     2     2    12     7
 -0.0000000008     2     2    12     8
 0.0000000099     2     2    12     9
 0.5021911854     2     2    12    12
 -0.0001721507     2     2    13     6
 -0.2038574720     2     2    13     7
 -0.0000000121     2     2    13     8
 0.0000000005     2     2    13     9
 0.5021911854     2     2    13    13
 -0.0000275408     2     3     1     2
 0.0000000551     2     3     1     4
 0.0000013697     2     3     1    10
 0.0000000001     2     3     3     1
 -0.5411547276     2     3     3     2
 0.0000039157     2     3     3     4
 0.0011492358     2     3     3    10
 -0.0000000001     2     3     3    11
 -0.3761401448     2     3     4     1
 -0.0000000201     2     3     4     2
 0.0015420990     2     3     4     5
 0.0014522041     2     3     4    11
 -0.0024148767     2     3     5     2
 0.0007770360     2     3     5     4
 -0.0000000004     2     3     5     5
 0.0187393538     2     3     5    10
 -0.0000000005     2     3     5    11
 -0.0000000008     2     3     6     6
 0.0000000001     2     3     6     7
 -0.0003127903     2     3     6     8
 0.0187165880     2     3     6     9
 0.0000000008     2     3     6    12
 -0.0000000001     2     3     6    13
 0.0000000001     2     3     7     6
 -0.0000000003     2     3     7     7
 -0.0187165880     2     3     7     8
 -0.0003127903     2     3     7     9
 -0.0000000001     2     3     7    12
 0.0000000004     2     3     7    13
 -0.0003079926     2     3     8     6
 -0.0184295031     2     3     8     7