&FCI NORB= 13,NELEC= 14,MS2=0,
 ORBSYM=1,1,1,1,1,1,1,1,1,1,1,1,1
 ISYM=1,
&END
 0.1790979658     1     1     2     2
 -0.0000880737     1     1     2     4
 -0.0021606412     1     1     2    10
 0.5437951268     1     1     3     3
 -0.0000000022     1     1     3     4
 -0.0002017848     1     1     3     5
 0.0000000001     1     1     3    10
 0.0759674629     1     1     3    11
 -0.0000880737     1     1     4     2
 -0.0000000022     1     1     4     3
 0.5482856982     1     1     4     4
 0.0000000003     1     1     4     5
 -0.0236288019     1     1     4    10
 -0.0000000004     1     1     4    11
 -0.0002017848     1     1     5     3
 0.0000000003     1     1     5     4
 0.5129335789     1     1     5     5
 0.0000000019     1     1     5    10
 0.1610923040     1     1     5    11
 0.5166920009     1     1     6     6
 0.0000000020     1     1     6     8
 -0.0000000004     1     1     6     9
 -0.0001313959     1     1     6    12
 -0.1943854401     1     1     6    13
 0.5166920009     1     1     7     7
 -0.0000000004     1     1     7     8
 -0.0000000019     1     1     7     9
 -0.1943854401     1     1     7    12
 0.0001313959     1     1     7    13
 0.0000000020     1     1     8     6
 -0.0000000004     1     1     8     7
 0.5236154572     1     1     8     8
 0.0000000001     1     1     8    11
 0.0000000002     1     1     8    12
 -0.0000000013     1     1     8    13
 -0.0000000004     1     1     9     6
 -0.0000000019     1     1     9     7
 0.5236154572     1     1     9     9
 0.0000000011     1     1     9    12
 0.0000000003     1     1     9    13
 -0.0021606412     1     1    10     2
 0.0000000001     1     1    10     3
 -0.0236288019     1     1    10     4
 0.0000000019     1     1    10     5
 0.5410520490     1     1    10    10
 0.0000000013     1     1    10    11
 -0.0000000001     1     1    10    13
 0.0759674629     1     1    11     3
 -0.0000000004     1     1    11     4
 0.1610923040     1     1    11     5
 0.0000000001     1     1    11     8
 0.0000000013     1     1    11    10
 0.5317005563     1     1    11    11
 -0.0001313959     1     1    12     6
 -0.1943854401     1     1    12     7
 0.0000000002     1     1    12     8
 0.0000000011     1     1    12     9
 0.5084144247     1     1    12    12
 -0.1943854401     1     1    13     6
 0.0001313959     1     1    13     7
 -0.0000000013     1     1    13     8
 0.0000000003     1     1    13     9
 -0.0000000001     1     1    13    10
 0.5084144247     1     1    13    13
 -0.1790979658     1     2     2     1
 -0.0000365497     1     2     2     3
 -0.0019944996     1     2     2     5
 -0.0018616183     1     2     2    11
 0.3669659383     1     2     3     4
 -0.0199787403     1     2     3    10
 0.0000880737     1     2     4     1
 0.3669750419     1     2     4     3
 -0.0477716996     1     2     4     5
 0.0672740740     1     2     4    11
 -0.0477706490     1     2     5     4
 0.0000000004     1     2     5     6
 -0.3219458983     1     2     5    10
 -0.0000000001     1     2     5    13
 0.0000000004     1     2     6     5
 0.0000000003     1     2     6     6
 -0.3267285338     1     2     6     8
 0.0606876482     1     2     6     9
 0.0000000001     1     2     6    11
 -0.0000000001     1     2     6    13
 -0.0000000003     1     2     7     7
 0.0606876483     1     2     7     8
 0.3267285338     1     2     7     9
 0.0000000001     1     2     7    12
 -0.3267031234     1     2     8     6
 0.0606829285     1     2     8     7
 -0.0000000003     1     2     8     8
 0.0000000001     1     2     8     9
 -0.0000000004     1     2     8    10
 -0.0377352488     1     2     8    12
 0.2039256534     1     2     8    13
 0.0606829285     1     2     9     6
 0.3267031234     1     2     9     7
 0.0000000001     1     2     9     8
 0.0000000003     1     2     9     9
 0.0000000001     1     2     9    10
 -0.2039256534     1     2     9    12
 -0.0377352488     1     2     9    13
 0.0021606412     1     2    10     1
 -0.0199812318     1     2    10     3
 -0.3218991791     1     2    10     5
 -0.0000000004     1     2    10     8
 0.0000000001     1     2    10     9
 -0.2247674107     1     2    10    11
 0.0672964737     1     2    11     4
 0.0000000001     1     2    11     6
 -0.2248172146     1     2    11    10
 0.0000000001     1     2    12     7
 -0.0377402764     1     2    12     8
 -0.2039528228     1     2    12     9
 -0.0000000001     1     2    12    12
 -0.0000000001     1     2    13     5
 -0.0000000001     1     2    13     6
 0.2039528228     1     2    13     8
 -0.0377402764     1     2    13     9
 0.0000000001     1     2    13    13
 0.0000365497     1     3     2     2
 0.0000000355     1     3     2     4
 0.0000032292     1     3     2    10
 -0.5437951268     1     3     3     1
 -0.0011999711     1     3     3     5
 -0.0016678795     1     3     3    11
 0.0000000022     1     3     4     1
 -0.3669750419     1     3     4     2
 -0.0001113573     1     3     4     4
 -0.0016542789     1     3     4    10
 0.0002017848     1     3     5     1
 -0.0176198940     1     3     5     5
 -0.0202523749     1     3     5    11
 -0.0183733078     1     3     6     6
 0.0000152741     1     3     6    12
 0.0225961995     1     3     6    13
 -0.0183733078     1     3     7     7
 0.0225961995     1     3     7    12
 -0.0000152741     1     3     7    13
 -0.0182441184     1     3     8     8
 0.0000000001     1     3     8    13
 -0.0182441184     1     3     9     9
 -0.0000000001     1     3    10     1
 0.0199812318     1     3    10     2
 -0.0008838973     1     3    10     4
 -0.0190003862     1     3    10    10
 -0.0759674629     1     3    11     1
 -0.0135643354     1     3    11     5
 -0.0164570384     1     3    11    11
 0.0000100880     1     3    12     6
 0.0149240322     1     3    12     7
 -0.0195045077     1     3    12    12
 0.0149240322     1     3    13     6
 -0.0000100880     1     3    13     7
 -0.0195045077     1     3    13    13
 0.0000880737     1     4     2     1
 -0.0000000355     1     4     2     3
 0.0000008946     1     4     2     5
 -0.0000142973     1     4     2    11
 0.0000000022     1     4     3     1
 -0.3669659383     1     4     3     2
 -0.0007341672     1     4     3    10
 -0.5482856982     1     4     4     1
 0.0001113573     1     4     4     3
 -0.0000075599     1     4     4     5
 0.0003744331     1     4     4    11
 -0.0000000003     1     4     5     1
 0.0477706490     1     4     5     2
 0.0182831477     1     4     5    10
 0.0181020112     1     4     6     8
 -0.0033623279     1     4     6     9
 0.0000000001     1     4     7     7
 -0.0033623279     1     4     7     8
 -0.0181020112     1     4     7     9
 -0.0000000001     1     4     7    12
 0.0174401196     1     4     8     6
 -0.0032393860     1     4     8     7
 0.0000000001     1     4     8     8
 0.0040998778     1     4     8    12
 -0.0221562143     1     4     8    13
 -0.0032393860     1     4     9     6
 -0.0174401196     1     4     9     7
 0.0221562143     1     4     9    12
 0.0040998778     1     4     9    13
 0.0236288019     1     4    10     1
 0.0008838973     1     4    10     3
 0.0175016434     1     4    10     5
 0.0212146718     1     4    10    11
 0.0000000004     1     4    11     1
 -0.0672964737     1     4    11     2
 0.0153722022     1     4    11    10
 0.0028853923     1     4    12     8
 0.0155929938     1     4    12     9
 -0.0155929938     1     4    13     8
 0.0028853923     1     4    13     9
 0.0019944996     1     5     2     2
 -0.0000008946     1     5     2     4
 -0.0000478849     1     5     2    10
 0.0002017848     1     5     3     1
 0.0011999711     1     5     3     3
 -0.0065107288     1     5     3    11
 -0.0000000003     1     5     4     1
 0.0477716996     1     5     4     2
 0.0000075599     1     5     4     4
 0.0005383822     1     5     4    10
 -0.5129335789     1     5     5     1
 0.0176198940     1     5     5     3
 0.0038274581     1     5     5    11
 -0.0000000004     1     5     6     2
 0.0019743925     1     5     6     6
 -0.0000009219     1     5     6    12
 -0.0013638897     1     5     6    13
 0.0019743925     1     5     7     7
 -0.0013638897     1     5     7    12
 0.0000009219     1     5     7    13
 0.0020801048     1     5     8     8
 0.0020801048     1     5     9     9
 -0.0000000019     1     5    10     1
 0.3218991791     1     5    10     2
 -0.0175016434     1     5    10     4
 0.0043541843     1     5    10    10
 -0.1610923040     1     5    11     1
 0.0135643354     1     5    11     3
 0.0108390760     1     5    11    11
 -0.0000010192     1     5    12     6
 -0.0015077742     1     5    12     7
 0.0028376590     1     5    12    12
 0.0000000001     1     5    13     2
 -0.0015077742     1     5    13     6
 0.0000010192     1     5    13     7
 0.0028376590     1     5    13    13
 -0.0000245743     1     6     2     8
 0.0000045645     1     6     2     9
 0.0000051002     1     6     3    12
 0.0075451170     1     6     3    13
 0.0004406553     1     6     4     8
 -0.0000818488     1     6     4     9
 -0.0000000004     1     6     5     2
 0.0000001232     1     6     5    12
 0.0001822604     1     6     5    13
 -0.5166920009     1     6     6     1
 -0.0000000003     1     6     6     2
 0.0183733078     1     6     6     3
 -0.0019743925     1     6     6     5
 0.0041664931     1     6     6    11
 -0.0000000020     1     6     8     1
 0.3267031234     1     6     8     2
 -0.0174401196     1     6     8     4
 0.0023500278     1     6     8    10
 0.0000000004     1     6     9     1
 -0.0606829285     1     6     9     2
 0.0032393860     1     6     9     4
 -0.0004365020     1     6     9    10
 0.0000349925     1     6    10     8
 -0.0000064996     1     6    10     9
 -0.0000000001     1     6    11     2
 -0.0000006396     1     6    11    12
 -0.0009462183     1     6    11    13
 0.0001313959     1     6    12     1
 -0.0000100880     1     6    12     3
 0.0000010192     1     6    12     5
 -0.0000051359     1     6    12    11
 0.1943854401     1     6    13     1
 0.0000000001     1     6    13     2
 -0.0149240322     1     6    13     3
 0.0015077742     1     6    13     5
 -0.0075980182     1     6    13    11
 0.0000045645     1     7     2     8
 0.0000245743     1     7     2     9
 0.0075451170     1     7     3    12
 -0.0000051002     1     7     3    13
 -0.0000818488     1     7     4     8
 -0.0004406553     1     7     4     9
 -0.0000000001     1     7     4    12
 0.0001822604     1     7     5    12
 -0.0000001232     1     7     5    13
 -0.5166920009     1     7     7     1
 0.0000000003     1     7     7     2
 0.0183733078     1     7     7     3
 -0.0000000001     1     7     7     4
 -0.0019743925     1     7     7     5
 0.0041664931     1     7     7    11
 0.0000000004     1     7     8     1
 -0.0606829285     1     7     8     2
 0.0032393860     1     7     8     4
 -0.0004365020     1     7     8    10
 0.0000000019     1     7     9     1
 -0.3267031234     1     7     9     2
 0.0174401196     1     7     9     4
 -0.0023500278     1     7     9    10
 -0.0000064996     1     7    10     8
 -0.0000349925     1     7    10     9
 -0.0009462183     1     7    11    12
 0.0000006396     1     7    11    13
 0.1943854401     1     7    12     1
 -0.0000000001     1     7    12     2
 -0.0149240322     1     7    12     3
 0.0015077742     1     7    12     5
 -0.0075980182     1     7    12    11
 -0.0001313959     1     7    13     1
 0.0000100880     1     7    13     3
 -0.0000010192     1     7    13     5
 0.0000051359     1     7    13    11
 0.0000245743     1     8     2     6
 -0.0000045645     1     8     2     7
 0.0000050444     1     8     2    12
 -0.0000272607     1     8     2    13
 0.0000000001     1     8     3    13
 -0.0004406553     1     8     4     6
 0.0000818488     1     8     4     7
 0.0011868132     1     8     4    12
 -0.0064136759     1     8     4    13
 -0.0000000020     1     8     6     1
 0.3267285338     1     8     6     2
 -0.0181020112     1     8     6     4
 0.0024924235     1     8     6    10
 0.0000000004     1     8     7     1
 -0.0606876483     1     8     7     2
 0.0033623279     1     8     7     4
 -0.0004629510     1     8     7    10
 -0.5236154572     1     8     8     1
 0.0000000003     1     8     8     2
 0.0182441184     1     8     8     3
 -0.0000000001     1     8     8     4
 -0.0020801048     1     8     8     5
 0.0047235447     1     8     8    11
 -0.0000000001     1     8     9     2
 0.0000000004     1     8    10     2
 -0.0000349925     1     8    10     6
 0.0000064996     1     8    10     7
 -0.0000867360     1     8    10    12
 0.0004687317     1     8    10    13
 -0.0000000001     1     8    11     1
 -0.0000000002     1     8    12     1
 0.0377402764     1     8    12     2
 -0.0028853923     1     8    12     4
 0.0002743923     1     8    12    10
 0.0000000013     1     8    13     1
 -0.2039528228     1     8    13     2
 0.0155929938     1     8    13     4
 -0.0014828480     1     8    13    10
 -0.0000045645     1     9     2     6
 -0.0000245743     1     9     2     7
 0.0000272607     1     9     2    12
 0.0000050444     1     9     2    13
 0.0000818488     1     9     4     6
 0.0004406553     1     9     4     7
 0.0064136759     1     9     4    12
 0.0011868132     1     9     4    13
 0.0000000004     1     9     6     1
 -0.0606876482     1     9     6     2
 0.0033623279     1     9     6     4
 -0.0004629510     1     9     6    10
 0.0000000019     1     9     7     1
 -0.3267285338     1     9     7     2
 0.0181020112     1     9     7     4
 -0.0024924235     1     9     7    10
 -0.0000000001     1     9     8     2
 -0.5236154572     1     9     9     1
 -0.0000000003     1     9     9     2
 0.0182441184     1     9     9     3
 -0.0020801048     1     9     9     5
 0.0047235447     1     9     9    11
 -0.0000000001     1     9    10     2
 0.0000064996     1     9    10     6
 0.0000349925     1     9    10     7
 -0.0004687317     1     9    10    12
 -0.0000867360     1     9    10    13
 -0.0000000011     1     9    12     1
 0.2039528228     1     9    12     2
 -0.0155929938     1     9    12     4
 0.0014828480     1     9    12    10
 -0.0000000003     1     9    13     1
 0.0377402764     1     9    13     2
 -0.0028853923     1     9    13     4
 0.0002743923     1     9    13    10
 0.0021606412     1    10     2     1
 -0.0000032292     1    10     2     3
 0.0000478849     1    10     2     5
 0.0000499875     1    10     2    11
 -0.0000000001     1    10     3     1
 0.0199787403     1    10     3     2
 0.0007341672     1    10     3     4
 0.0236288019     1    10     4     1
 0.0016542789     1    10     4     3
 -0.0005383822     1    10     4     5
 0.0056419026     1    10     4    11
 -0.0000000019     1    10     5     1
 0.3219458983     1    10     5     2
 -0.0182831477     1    10     5     4
 -0.0024924235     1    10     6     8
 0.0004629510     1    10     6     9
 0.0004629510     1    10     7     8
 0.0024924235     1    10     7     9
 0.0000000004     1    10     8     2
 -0.0023500278     1    10     8     6
 0.0004365020     1    10     8     7
 -0.0003630404     1    10     8    12
 0.0019619127     1    10     8    13
 -0.0000000001     1    10     9     2
 0.0004365020     1    10     9     6
 0.0023500278     1    10     9     7
 -0.0019619127     1    10     9    12
 -0.0003630404     1    10     9    13
 -0.5410520490     1    10    10     1
 0.0190003862     1    10    10     3
 -0.0043541843     1    10    10     5
 0.0025913246     1    10    10    11
 -0.0000000013     1    10    11     1
 0.2248172146     1    10    11     2
 -0.0153722022     1    10    11     4
 -0.0002743923     1    10    12     8
 -0.0014828480     1    10    12     9
 0.0000000001     1    10    13     1
 0.0014828480     1    10    13     8
 -0.0002743923     1    10    13     9
 0.0018616183     1    11     2     2
 0.0000142973     1    11     2     4
 -0.0000499875     1    11     2    10
 -0.0759674629     1    11     3     1
 0.0016678795     1    11     3     3
 0.0065107288     1    11     3     5
 0.0000000004     1    11     4     1
 -0.0672740740     1    11     4     2
 -0.0003744331     1    11     4     4
 -0.0056419026     1    11     4    10
 -0.1610923040     1    11     5     1
 0.0202523749     1    11     5     3
 -0.0038274581     1    11     5     5
 -0.0000000001     1    11     6     2
 -0.0041664931     1    11     6     6
 0.0000045410     1    11     6    12
 0.0067178225     1    11     6    13
 -0.0041664931     1    11     7     7
 0.0067178225     1    11     7    12
 -0.0000045410     1    11     7    13
 -0.0000000001     1    11     8     1
 -0.0047235447     1    11     8     8
 -0.0047235447     1    11     9     9
 -0.0000000013     1    11    10     1
 0.2247674107     1    11    10     2
 -0.0212146718     1    11    10     4
 -0.0025913246     1    11    10    10
 -0.5317005563     1    11    11     1
 0.0164570384     1    11    11     3
 -0.0108390760     1    11    11     5
 0.0000051359     1    11    12     6
 0.0075980182     1    11    12     7
 -0.0086828914     1    11    12    12
 0.0075980182     1    11    13     6
 -0.0000051359     1    11    13     7
 -0.0086828914     1    11    13    13
 -0.0000050444     1    12     2     8
 -0.0000272607     1    12     2     9
 -0.0000051002     1    12     3     6
 -0.0075451170     1    12     3     7
 0.0000000001     1    12     4     7
 -0.0011868132     1    12     4     8
 -0.0064136759     1    12     4     9
 -0.0000001232     1    12     5     6
 -0.0001822604     1    12     5     7
 0.0001313959     1    12     6     1
 -0.0000152741     1    12     6     3
 0.0000009219     1    12     6     5
 -0.0000045410     1    12     6    11
 0.1943854401     1    12     7     1
 -0.0000000001     1    12     7     2
 -0.0225961995     1    12     7     3
 0.0000000001     1    12     7     4
 0.0013638897     1    12     7     5
 -0.0067178225     1    12     7    11
 -0.0000000002     1    12     8     1
 0.0377352488     1    12     8     2
 -0.0040998778     1    12     8     4
 0.0003630404     1    12     8    10
 -0.0000000011     1    12     9     1
 0.2039256534     1    12     9     2
 -0.0221562143     1    12     9     4
 0.0019619127     1    12     9    10
 0.0000867360     1    12    10     8
 0.0004687317     1    12    10     9
 0.0000006396     1    12    11     6
 0.0009462183     1    12    11     7
 -0.5084144247     1    12    12     1
 0.0000000001     1    12    12     2
 0.0195045077     1    12    12     3
 -0.0028376590     1    12    12     5
 0.0086828914     1    12    12    11
 0.0000272607     1    13     2     8
 -0.0000050444     1    13     2     9
 -0.0075451170     1    13     3     6
 0.0000051002     1    13     3     7
 -0.0000000001     1    13     3     8
 0.0064136759     1    13     4     8
 -0.0011868132     1    13     4     9
 0.0000000001     1    13     5     2
 -0.0001822604     1    13     5     6
 0.0000001232     1    13     5     7
 0.1943854401     1    13     6     1
 0.0000000001     1    13     6     2
 -0.0225961995     1    13     6     3
 0.0013638897     1    13     6     5
 -0.0067178225     1    13     6    11
 -0.0001313959     1    13     7     1
 0.0000152741     1    13     7     3
 -0.0000009219     1    13     7     5
 0.0000045410     1    13     7    11
 0.0000000013     1    13     8     1
 -0.2039256534     1    13     8     2
 -0.0000000001     1    13     8     3
 0.0221562143     1    13     8     4
 -0.0019619127     1    13     8    10
 -0.0000000003     1    13     9     1
 0.0377352488     1    13     9     2
 -0.0040998778     1    13     9     4
 0.0003630404     1    13     9    10
 0.0000000001     1    13    10     1
 -0.0004687317     1    13    10     8
 0.0000867360     1    13    10     9
 0.0009462183     1    13    11     6
 -0.0000006396     1    13    11     7
 -0.5084144247     1    13    13     1
 -0.0000000001     1    13    13     2
 0.0195045077     1    13    13     3
 -0.0028376590     1    13    13     5
 0.0086828914     1    13    13    11
 -0.1790979658     2     1     1     2
 0.0000880737     2     1     1     4
 0.0021606412     2     1     1    10
 -0.0000365497     2     1     3     2
 0.3669750419     2     1     3     4
 -0.0199812318     2     1     3    10
 0.3669659383     2     1     4     3
 -0.0477706490     2     1     4     5
 0.0672964737     2     1     4    11
 -0.0019944996     2     1     5     2
 -0.0477716996     2     1     5     4
 0.0000000004     2     1     5     6
 -0.3218991791     2     1     5    10
 -0.0000000001     2     1     5    13
 0.0000000004     2     1     6     5
 0.0000000003     2     1     6     6
 -0.3267031234     2     1     6     8
 0.0606829285     2     1     6     9
 0.0000000001     2     1     6    11
 -0.0000000001     2     1     6    13
 -0.0000000003     2     1     7     7
 0.0606829285     2     1     7     8
 0.3267031234     2     1     7     9
 0.0000000001     2     1     7    12
 -0.3267285338     2     1     8     6
 0.0606876483     2     1     8     7
 -0.0000000003     2     1     8     8
 0.0000000001     2     1     8     9
 -0.0000000004     2     1     8    10
 -0.0377402764     2     1     8    12
 0.2039528228     2     1     8    13
 0.0606876482     2     1     9     6
 0.3267285338     2     1     9     7
 0.0000000001     2     1     9     8
 0.0000000003     2     1     9     9
 0.0000000001     2     1     9    10
 -0.2039528228     2     1     9    12
 -0.0377402764     2     1     9    13
 -0.0199787403     2     1    10     3
 -0.3219458983     2     1    10     5
 -0.0000000004     2     1    10     8
 0.0000000001     2     1    10     9
 -0.2248172146     2     1    10    11
 -0.0018616183     2     1    11     2
 0.0672740740     2     1    11     4
 0.0000000001     2     1    11     6
 -0.2247674107     2     1    11    10
 0.0000000001     2     1    12     7
 -0.0377352488     2     1    12     8
 -0.2039256534     2     1    12     9
 -0.0000000001     2     1    12    12
 -0.0000000001     2     1    13     5
 -0.0000000001     2     1    13     6
 0.2039256534     2     1    13     8
 -0.0377352488     2     1    13     9
 0.0000000001     2     1    13    13
 0.1790979658     2     2     1     1
 0.0000365497     2     2     1     3
 0.0019944996     2     2     1     5
 0.0018616183     2     2     1    11
 0.0000365497     2     2     3     1
 0.5438045482     2     2     3     3
 0.0000000022     2     2     3     4
 -0.0001964218     2     2     3     5
 -0.0000000001     2     2     3    10
 0.0759927671     2     2     3    11
 0.0000000022     2     2     4     3
 0.5482758543     2     2     4     4
 -0.0000000003     2     2     4     5
 -0.0236420126     2     2     4    10
 0.0000000004     2     2     4    11
 0.0019944996     2     2     5     1
 -0.0001964218     2     2     5     3
 -0.0000000003     2     2     5     4
 0.5129771851     2     2     5     5
 -0.0000000019     2     2     5    10
 0.1611383705     2     2     5    11
 0.5167132390     2     2     6     6
 -0.0000000019     2     2     6     8
 0.0000000004     2     2     6     9
 -0.0001314121     2     2     6    12
 -0.1944095338     2     2     6    13
 0.5167132390     2     2     7     7
 0.0000000004     2     2     7     8
 0.0000000020     2     2     7     9
 -0.1944095338     2     2     7    12
 0.0001314121     2     2     7    13
 -0.0000000019     2     2     8     6
 0.0000000004     2     2     8     7
 0.5235925671     2     2     8     8
 0.0000000001     2     2     8    11
 -0.0000000003     2     2     8    12
 0.0000000011     2     2     8    13
 0.0000000004     2     2     9     6
 0.0000000020     2     2     9     7
 0.5235925671     2     2     9     9
 -0.0000000013     2     2     9    12
 -0.0000000002     2     2     9    13
 -0.0000000001     2     2    10     3
 -0.0236420126     2     2    10     4
 -0.0000000019     2     2    10     5
 0.5410057334     2     2    10    10
 -0.0000000014     2     2    10    11
 -0.0000000001     2     2    10    13
 0.0018616183     2     2    11     1
 0.0759927671     2     2    11     3
 0.0000000004     2     2    11     4
 0.1611383705     2     2    11     5
 0.0000000001     2     2    11     8
 -0.0000000014     2     2    11    10
 0.5317590007     2     2    11    11
 -0.0001314121     2     2    12     6
 -0.1944095338     2     2    12     7
 -0.0000000003     2     2    12     8
 -0.0000000013     2     2    12     9
 0.5084428942     2     2    12    12
 -0.1944095338     2     2    13     6
 0.0001314121     2     2    13     7
 0.0000000011     2     2    13     8
 -0.0000000002     2     2    13     9
 -0.0000000001     2     2    13    10
 0.5084428942     2     2    13    13
 -0.0000365497     2     3     1     2
 -0.0000000355     2     3     1     4
 -0.0000032292     2     3     1    10
 -0.5438045482     2     3     3     2
 0.0000053944     2     3     3     4
 0.0015044510     2     3     3    10
 -0.3669659383     2     3     4     1
 -0.0000000022     2     3     4     2
 0.0018827162     2     3     4     5
 0.0019226222     2     3     4    11
 0.0001964218     2     3     5     2
 0.0010419843     2     3     5     4
 0.0187185688     2     3     5    10
 -0.0000000001     2     3     6     6
 0.0182513469     2     3     6     8
 -0.0033900661     2     3     6     9
 0.0000000001     2     3     6    13
 -0.0033900661     2     3     7     8
 -0.0182513469     2     3     7     9
 0.0171290767     2     3     8     6
 -0.0031816119     2     3     8     7
 0.0040026947     2     3     8    12
 -0.0216310257     2     3     8    13
 -0.0031816119     2     3     9     6
 -0.0171290767     2     3     9     7
 -0.0000000001     2     3     9     9
 0.0216310257     2     3     9    12
 0.0040026947     2     3     9    13
 0.0199787403     2     3    10     1
 0.0000000001     2     3    10     2
 0.0169808885     2     3    10     5
 0.0202260888     2     3    10    11
 -0.0759927671     2     3    11     2
 0.0011936769     2     3    11     4
 0.0148538936     2     3    11    10
 0.0028210632     2     3    12     8
 0.0152453524     2     3    12     9
 -0.0152453524     2     3    13     8
 0.0028210632     2     3    13     9
 -0.0000880737     2     4     1     1
 0.0000000355     2     4     1     3
 -0.0000008946     2     4     1     5
 0.0000142973     2     4     1    11
 -0.3669750419     2     4     3     1
 -0.0000000022     2     4     3     2
 -0.0000053944     2     4     3     3
 0.0008355511     2     4     3     5
 0.0008069987     2     4     3    11
 -0.5482758543     2     4     4     2
 0.0003040726     2     4     4    10
 0.0477716996     2     4     5     1
 0.0000000003     2     4     5     2
 -0.0010419843     2     4     5     3
 -0.0172521623     2     4     5     5
 -0.0200662384     2     4     5    11
 -0.0183387438     2     4     6     6
 0.0000152358     2     4     6    12
 0.0225396376     2     4     6    13
 -0.0183387438     2     4     7     7
 0.0225396376     2     4     7    12
 -0.0000152358     2     4     7    13
 -0.0187502786     2     4     8     8
 -0.0187502786     2     4     9     9
 0.0000000001     2     4     9    12
 0.0236420126     2     4    10     2
 -0.0198178382     2     4    10    10
 -0.0672740740     2     4    11     1
 -0.0000000004     2     4    11     2
 -0.0011936769     2     4    11     3
 -0.0137996083     2     4    11     5
 -0.0175035165     2     4    11    11
 0.0000102860     2     4    12     6
 0.0152170562     2     4    12     7
 -0.0200033015     2     4    12    12
 0.0152170562     2     4    13     6
 -0.0000102860     2     4    13     7
 -0.0200033015     2     4    13    13
 -0.0019944996     2     5     1     2
 0.0000008946     2     5     1     4
 0.0000478849     2     5     1    10
 0.0001964218     2     5     3     2
 -0.0008355511     2     5     3     4
 0.0015378368     2     5     3    10
 0.0477706490     2     5     4     1
 0.0000000003     2     5     4     2
 -0.0018827162     2     5     4     3
 -0.0060462615     2     5     4    11
 -0.5129771851     2     5     5     2
 0.0172521623     2     5     5     4
 0.0003538667     2     5     5    10
 -0.0000000004     2     5     6     1
 0.0001040115     2     5     6     8
 -0.0000193194     2     5     6     9
 -0.0000193194     2     5     7     8
 -0.0001040115     2     5     7     9
 0.0000041683     2     5     8     6
 -0.0000007742     2     5     8     7
 -0.0002350559     2     5     8    12
 0.0012702691     2     5     8    13
 -0.0000007742     2     5     9     6
 -0.0000041683     2     5     9     7
 -0.0012702691     2     5     9    12
 -0.0002350559     2     5     9    13
 0.3219458983     2     5    10     1
 0.0000000019     2     5    10     2
 -0.0169808885     2     5    10     3
 -0.0067980041     2     5    10    11
 -0.1611383705     2     5    11     2
 0.0137996083     2     5    11     4
 -0.0029064832     2     5    11    10
 -0.0002428997     2     5    12     8
 -0.0013126581     2     5    12     9
 0.0000000001     2     5    13     1
 0.0013126581     2     5    13     8
 -0.0002428997     2     5    13     9
 0.0000245743     2     6     1     8
 -0.0000045645     2     6     1     9
 0.0009705872     2     6     3     8
 -0.0001802801     2     6     3     9
 0.0000000001     2     6     3    13
 0.0000048208     2     6     4    12
 0.0071317815     2     6     4    13
 -0.0000000004     2     6     5     1
 0.0000725350     2     6     5     8
 -0.0000134729     2     6     5     9
 -0.0000000003     2     6     6     1
 -0.5167132390     2     6     6     2
 0.0000000001     2     6     6     3
 0.0183387438     2     6     6     4