&FCI NORB= 19,NELEC= 14,MS2=0,
 ORBSYM=1,1,1,1,1,1,1,1,1,1,1,1,1,1,1,1,1,1,1
 ISYM=1,
&END
 0.1859884680     1     1     2     2
 -0.0001320335     1     1     2     4
 0.0022712978     1     1     2    10
 -0.0018689366     1     1     2    14
 0.0017631399     1     1     2    18
 0.5497247937     1     1     3     3
 -0.0000000005     1     1     3     4
 0.0019351947     1     1     3     5
 0.0849381865     1     1     3    11
 -0.0000000001     1     1     3    14
 0.1400884759     1     1     3    17
 -0.0000000002     1     1     3    18
 0.0078834036     1     1     3    19
 -0.0001320335     1     1     4     2
 -0.0000000005     1     1     4     3
 0.5549037224     1     1     4     4
 0.0000000001     1     1     4     5
 0.0229192529     1     1     4    10
 -0.0000000001     1     1     4    11
 0.1240548696     1     1     4    14
 -0.0000000002     1     1     4    17
 0.1049241287     1     1     4    18
 0.0019351947     1     1     5     3
 0.0000000001     1     1     5     4
 0.5126377564     1     1     5     5
 -0.0000000004     1     1     5    10
 0.1620834218     1     1     5    11
 0.0000000002     1     1     5    14
 -0.1106855761     1     1     5    17
 -0.0000000001     1     1     5    18
 0.0218544163     1     1     5    19
 0.5195920207     1     1     6     6
 -0.0000000002     1     1     6     8
 -0.0000000003     1     1     6     9
 -0.2038718556     1     1     6    12
 0.0008088498     1     1     6    13
 0.0000000003     1     1     6    16
 0.5195920207     1     1     7     7
 -0.0000000004     1     1     7     8
 0.0000000002     1     1     7     9
 -0.0008088498     1     1     7    12
 -0.2038718556     1     1     7    13
 -0.0000000001     1     1     7    15
 0.0000000003     1     1     7    16
 -0.0000000002     1     1     8     6
 -0.0000000004     1     1     8     7
 0.5275898886     1     1     8     8
 0.0000000001     1     1     8    13
 0.0428511175     1     1     8    15
 -0.2005393568     1     1     8    16
 -0.0000000003     1     1     9     6
 0.0000000002     1     1     9     7
 0.5275898886     1     1     9     9
 0.0000000003     1     1     9    12
 -0.0000000003     1     1     9    13
 -0.2005393568     1     1     9    15
 -0.0428511175     1     1     9    16
 0.0022712978     1     1    10     2
 0.0229192529     1     1    10     4
 -0.0000000004     1     1    10     5
 0.5469454443     1     1    10    10
 -0.0000000003     1     1    10    11
 -0.1465166838     1     1    10    14
 0.0000000001     1     1    10    17
 0.1400022366     1     1    10    18
 0.0849381865     1     1    11     3
 -0.0000000001     1     1    11     4
 0.1620834218     1     1    11     5
 -0.0000000003     1     1    11    10
 0.5368354268     1     1    11    11
 0.0000000001     1     1    11    14
 -0.0235049507     1     1    11    17
 -0.0000000003     1     1    11    18
 0.0006302484     1     1    11    19
 -0.2038718556     1     1    12     6
 -0.0008088498     1     1    12     7
 0.0000000003     1     1    12     9
 0.5120038662     1     1    12    12
 -0.0000000003     1     1    12    15
 -0.0000000003     1     1    12    16
 0.0008088498     1     1    13     6
 -0.2038718556     1     1    13     7
 0.0000000001     1     1    13     8
 -0.0000000003     1     1    13     9
 0.5120038662     1     1    13    13
 0.0000000003     1     1    13    15
 -0.0000000003     1     1    13    16
 -0.0018689366     1     1    14     2
 -0.0000000001     1     1    14     3
 0.1240548696     1     1    14     4
 0.0000000002     1     1    14     5
 -0.1465166838     1     1    14    10
 0.0000000001     1     1    14    11
 0.4659189648     1     1    14    14
 -0.0000000004     1     1    14    17
 -0.0275786272     1     1    14    18
 -0.0000000001     1     1    15     7
 0.0428511175     1     1    15     8
 -0.2005393568     1     1    15     9
 -0.0000000003     1     1    15    12
 0.0000000003     1     1    15    13
 0.5065072850     1     1    15    15
 0.0000000003     1     1    16     6
 0.0000000003     1     1    16     7
 -0.2005393568     1     1    16     8
 -0.0428511175     1     1    16     9
 -0.0000000003     1     1    16    12
 -0.0000000003     1     1    16    13
 0.5065072850     1     1    16    16
 0.1400884759     1     1    17     3
 -0.0000000002     1     1    17     4
 -0.1106855761     1     1    17     5
 0.0000000001     1     1    17    10
 -0.0235049507     1     1    17    11
 -0.0000000004     1     1    17    14
 0.4493593867     1     1    17    17
 -0.0000000001     1     1    17    18
 0.0001574077     1     1    17    19
 0.0017631399     1     1    18     2
 -0.0000000002     1     1    18     3
 0.1049241287     1     1    18     4
 -0.0000000001     1     1    18     5
 0.1400022366     1     1    18    10
 -0.0000000003     1     1    18    11
 -0.0275786272     1     1    18    14
 -0.0000000001     1     1    18    17
 0.4916126835     1     1    18    18
 -0.0000000001     1     1    18    19
 0.0078834036     1     1    19     3
 0.0218544163     1     1    19     5
 0.0006302484     1     1    19    11
 0.0001574077     1     1    19    17
 -0.0000000001     1     1    19    18
 0.4781944022     1     1    19    19
 -0.1859884680     1     2     2     1
 -0.0000443597     1     2     2     3
 -0.0021524649     1     2     2     5
 -0.0022826398     1     2     2    11
 0.0012886025     1     2     2    17
 -0.0002550970     1     2     2    19
 0.3662112267     1     2     3     4
 0.0218783376     1     2     3    10
 0.1074851535     1     2     3    14
 0.1115485944     1     2     3    18
 0.0001320335     1     2     4     1
 0.3662113331     1     2     4     3
 -0.0503446224     1     2     4     5
 0.0830549768     1     2     4    11
 0.1451223687     1     2     4    17
 0.0011523817     1     2     4    19
 -0.0503483390     1     2     5     4
 0.3313473092     1     2     5    10
 -0.1417436908     1     2     5    14
 0.1040496157     1     2     5    18
 0.0000000002     1     2     6     6
 -0.0000000006     1     2     6     7
 0.1872979512     1     2     6     8
 0.2851174243     1     2     6     9
 -0.0000000001     1     2     6    12
 0.0000000002     1     2     6    13
 -0.1362044432     1     2     6    15
 -0.1379415846     1     2     6    16
 -0.0000000006     1     2     7     6
 -0.0000000002     1     2     7     7
 0.2851174243     1     2     7     8
 -0.1872979512     1     2     7     9
 0.0000000002     1     2     7    12
 0.0000000001     1     2     7    13
 0.1379415846     1     2     7    15
 -0.1362044432     1     2     7    16
 0.1872833919     1     2     8     6
 0.2850952612     1     2     8     7
 0.0000000006     1     2     8     8
 0.0000000001     1     2     8     9
 -0.1150825190     1     2     8    12
 -0.1736807516     1     2     8    13
 -0.0000000002     1     2     8    16
 0.2850952612     1     2     9     6
 -0.1872833919     1     2     9     7
 0.0000000001     1     2     9     8
 -0.0000000006     1     2     9     9
 -0.1736807516     1     2     9    12
 0.1150825190     1     2     9    13
 0.0000000002     1     2     9    15
 -0.0022712978     1     2    10     1
 0.0218764944     1     2    10     3
 0.3312946923     1     2    10     5
 0.2249956637     1     2    10    11
 -0.0799791022     1     2    10    17
 -0.0114782235     1     2    10    19
 0.0830510706     1     2    11     4
 0.2250520629     1     2    11    10
 -0.1160444398     1     2    11    14
 0.2695270612     1     2    11    18
 -0.0000000001     1     2    12     6
 0.0000000002     1     2    12     7
 -0.1150990311     1     2    12     8
 -0.1737056715     1     2    12     9
 -0.0000000001     1     2    12    13
 0.2305476237     1     2    12    15
 0.2353483350     1     2    12    16
 0.0000000002     1     2    13     6
 0.0000000001     1     2    13     7
 -0.1737056715     1     2    13     8
 0.1150990311     1     2    13     9
 -0.0000000001     1     2    13    12
 -0.2353483350     1     2    13    15
 0.2305476237     1     2    13    16
 0.0018689366     1     2    14     1
 0.1074866175     1     2    14     3
 -0.1417013026     1     2    14     5
 -0.1159990852     1     2    14    11
 0.2919483805     1     2    14    17
 -0.0163600864     1     2    14    19
 -0.1361821971     1     2    15     6
 0.1379190548     1     2    15     7
 0.0000000002     1     2    15     9
 0.2305226079     1     2    15    12
 -0.2353227983     1     2    15    13
 -0.0000000001     1     2    15    15
 -0.1379190548     1     2    16     6
 -0.1361821971     1     2    16     7
 -0.0000000002     1     2    16     8
 0.2353227983     1     2    16    12
 0.2305226079     1     2    16    13
 0.0000000001     1     2    16    16
 0.1451246364     1     2    17     4
 -0.0800113170     1     2    17    10
 0.2919743437     1     2    17    14
 0.0504391717     1     2    17    18
 -0.0017631399     1     2    18     1
 0.1115473018     1     2    18     3
 0.1040095060     1     2    18     5
 0.2694840431     1     2    18    11
 0.0504637647     1     2    18    17
 0.0644361245     1     2    18    19
 0.0011517079     1     2    19     4
 -0.0114693401     1     2    19    10
 -0.0163674985     1     2    19    14
 0.0644428404     1     2    19    18
 0.0000443597     1     3     2     2
 -0.0000001064     1     3     2     4
 0.0000018432     1     3     2    10
 -0.0000014640     1     3     2    14
 0.0000012926     1     3     2    18
 -0.5497247937     1     3     3     1
 -0.0013132701     1     3     3     5
 -0.0018542184     1     3     3    11
 0.0003583249     1     3     3    17
 -0.0001846140     1     3     3    19
 0.0000000005     1     3     4     1
 -0.3662113331     1     3     4     2
 -0.0001488381     1     3     4     4
 0.0020909070     1     3     4    10
 -0.0021674499     1     3     4    14
 0.0011734890     1     3     4    18
 -0.0019351947     1     3     5     1
 -0.0172779190     1     3     5     5
 -0.0198947873     1     3     5    11
 0.0112841744     1     3     5    17
 -0.0010252433     1     3     5    19
 -0.0183299065     1     3     6     6
 0.0228816148     1     3     6    12
 -0.0000907815     1     3     6    13
 -0.0183299065     1     3     7     7
 0.0000907815     1     3     7    12
 0.0228816148     1     3     7    13
 -0.0187279183     1     3     8     8
 -0.0047625683     1     3     8    15
 0.0222883892     1     3     8    16
 -0.0187279183     1     3     9     9
 0.0222883892     1     3     9    15
 0.0047625683     1     3     9    16
 -0.0218764944     1     3    10     2
 0.0011988584     1     3    10     4
 -0.0195825034     1     3    10    10
 0.0169204564     1     3    10    14
 -0.0155921206     1     3    10    18
 -0.0849381865     1     3    11     1
 -0.0134422558     1     3    11     5
 -0.0160348440     1     3    11    11
 0.0088033748     1     3    11    17
 -0.0006366870     1     3    11    19
 0.0153881898     1     3    12     6
 0.0000610518     1     3    12     7
 -0.0198049355     1     3    12    12
 -0.0000610518     1     3    13     6
 0.0153881898     1     3    13     7
 -0.0198049355     1     3    13    13
 0.0000000001     1     3    14     1
 -0.1074866175     1     3    14     2
 -0.0007265219     1     3    14     4
 0.0116876032     1     3    14    10
 -0.0108158234     1     3    14    14
 0.0093011100     1     3    14    18
 -0.0032446812     1     3    15     8
 0.0151848147     1     3    15     9
 -0.0195068414     1     3    15    15
 0.0151848147     1     3    16     8
 0.0032446812     1     3    16     9
 -0.0195068414     1     3    16    16
 -0.1400884759     1     3    17     1
 0.0072183039     1     3    17     5
 0.0082906851     1     3    17    11
 -0.0053803352     1     3    17    17
 0.0004000351     1     3    17    19
 0.0000000002     1     3    18     1
 -0.1115473018     1     3    18     2
 0.0006022396     1     3    18     4
 -0.0101893684     1     3    18    10
 0.0088633222     1     3    18    14
 -0.0087984467     1     3    18    18
 -0.0078834036     1     3    19     1
 -0.0007095640     1     3    19     5
 -0.0007407022     1     3    19    11
 0.0004831329     1     3    19    17
 -0.0027892643     1     3    19    19
 0.0001320335     1     4     2     1
 0.0000001064     1     4     2     3
 0.0000037166     1     4     2     5
 0.0000039062     1     4     2    11
 -0.0000022677     1     4     2    17
 0.0000006738     1     4     2    19
 0.0000000005     1     4     3     1
 -0.3662112267     1     4     3     2
 0.0008920486     1     4     3    10
 -0.0014409280     1     4     3    14
 0.0005712494     1     4     3    18
 -0.5549037224     1     4     4     1
 0.0001488381     1     4     4     3
 0.0000468845     1     4     4     5
 0.0001141970     1     4     4    11
 -0.0007317058     1     4     4    17
 -0.0000155658     1     4     4    19
 -0.0000000001     1     4     5     1
 0.0503483390     1     4     5     2
 -0.0184947588     1     4     5    10
 0.0155969611     1     4     5    14
 -0.0151698287     1     4     5    18
 -0.0102104382     1     4     6     8
 -0.0155430096     1     4     6     9
 0.0159600138     1     4     6    15
 0.0161635666     1     4     6    16
 -0.0155430096     1     4     7     8
 0.0102104382     1     4     7     9
 -0.0161635666     1     4     7    15
 0.0159600138     1     4     7    16
 -0.0103381710     1     4     8     6
 -0.0157374529     1     4     8     7
 0.0130235680     1     4     8    12
 0.0196549666     1     4     8    13
 -0.0157374529     1     4     9     6
 0.0103381710     1     4     9     7
 0.0196549666     1     4     9    12
 -0.0130235680     1     4     9    13
 -0.0229192529     1     4    10     1
 -0.0011988584     1     4    10     3
 -0.0184880079     1     4    10     5
 -0.0218531780     1     4    10    11
 0.0114802510     1     4    10    17
 -0.0015379058     1     4    10    19
 0.0000000001     1     4    11     1
 -0.0830510706     1     4    11     2
 -0.0153681291     1     4    11    10
 0.0128172653     1     4    11    14
 -0.0132996865     1     4    11    18
 0.0089142406     1     4    12     8
 0.0134532336     1     4    12     9
 -0.0141376397     1     4    12    15
 -0.0144320289     1     4    12    16
 0.0134532336     1     4    13     8
 -0.0089142406     1     4    13     9
 0.0144320289     1     4    13    15
 -0.0141376397     1     4    13    16
 -0.1240548696     1     4    14     1
 0.0007265219     1     4    14     3
 0.0107031459     1     4    14     5
 0.0127952676     1     4    14    11
 -0.0069534616     1     4    14    17
 0.0008895320     1     4    14    19
 0.0108160284     1     4    15     6
 -0.0109539752     1     4    15     7
 -0.0138432211     1     4    15    12
 0.0141314796     1     4    15    13
 0.0109539752     1     4    16     6
 0.0108160284     1     4    16     7
 -0.0141314796     1     4    16    12
 -0.0138432211     1     4    16    13
 0.0000000002     1     4    17     1
 -0.1451246364     1     4    17     2
 0.0081516351     1     4    17    10
 -0.0072208590     1     4    17    14
 0.0065859265     1     4    17    18
 -0.1049241287     1     4    18     1
 -0.0006022396     1     4    18     3
 -0.0093415131     1     4    18     5
 -0.0116898266     1     4    18    11
 0.0054707752     1     4    18    17
 -0.0011251638     1     4    18    19
 -0.0011517079     1     4    19     2
 -0.0004502927     1     4    19    10
 0.0002303893     1     4    19    14
 -0.0005677692     1     4    19    18
 0.0021524649     1     5     2     2
 -0.0000037166     1     5     2     4
 0.0000526169     1     5     2    10
 -0.0000423882     1     5     2    14
 0.0000401097     1     5     2    18
 -0.0019351947     1     5     3     1
 0.0013132701     1     5     3     3
 -0.0064525315     1     5     3    11
 0.0040658705     1     5     3    17
 -0.0003156793     1     5     3    19
 -0.0000000001     1     5     4     1
 0.0503446224     1     5     4     2
 -0.0000468845     1     5     4     4
 -0.0000067509     1     5     4    10
 0.0048938152     1     5     4    14
 -0.0058283156     1     5     4    18
 -0.5126377564     1     5     5     1
 0.0172779190     1     5     5     3
 0.0035910614     1     5     5    11
 0.0083229303     1     5     5    17
 0.0079951556     1     5     5    19
 0.0020768949     1     5     6     6
 -0.0010972975     1     5     6    12
 0.0000043535     1     5     6    13
 0.0020768949     1     5     7     7
 -0.0000043535     1     5     7    12
 -0.0010972975     1     5     7    13
 0.0021043926     1     5     8     8
 0.0003767380     1     5     8    15
 -0.0017630994     1     5     8    16
 0.0021043926     1     5     9     9
 -0.0017630994     1     5     9    15
 -0.0003767380     1     5     9    16
 0.0000000004     1     5    10     1
 -0.3312946923     1     5    10     2
 0.0184880079     1     5    10     4
 0.0045959412     1     5    10    10
 0.0051221926     1     5    10    14
 0.0102778639     1     5    10    18
 -0.1620834218     1     5    11     1
 0.0134422558     1     5    11     3
 0.0112378892     1     5    11    11
 0.0097961603     1     5    11    17
 0.0044715213     1     5    11    19
 -0.0012625050     1     5    12     6
 -0.0000050089     1     5    12     7
 0.0027091366     1     5    12    12
 0.0000050089     1     5    13     6
 -0.0012625050     1     5    13     7
 0.0027091366     1     5    13    13
 -0.0000000002     1     5    14     1
 0.1417013026     1     5    14     2
 -0.0107031459     1     5    14     4
 -0.0020186572     1     5    14    10
 -0.0072178473     1     5    14    14
 -0.0074257670     1     5    14    18
 0.0002429665     1     5    15     8
 -0.0011370610     1     5    15     9
 0.0020610939     1     5    15    15
 -0.0011370610     1     5    16     8
 -0.0002429665     1     5    16     9
 0.0020610939     1     5    16    16
 0.1106855761     1     5    17     1
 -0.0072183039     1     5    17     3
 -0.0026437583     1     5    17    11
 -0.0063643417     1     5    17    17
 -0.0019659703     1     5    17    19
 0.0000000001     1     5    18     1
 -0.1040095060     1     5    18     2
 0.0093415131     1     5    18     4
 0.0016285797     1     5    18    10
 0.0062353126     1     5    18    14
 0.0091182256     1     5    18    18
 -0.0218544163     1     5    19     1
 0.0007095640     1     5    19     3
 -0.0052340136     1     5    19    11
 0.0041272717     1     5    19    17
 0.0008417271     1     5    19    19
 0.0000145593     1     6     2     8
 0.0000221631     1     6     2     9
 -0.0000222461     1     6     2    15
 -0.0000225298     1     6     2    16
 0.0074934250     1     6     3    12
 -0.0000297297     1     6     3    13
 0.0001277328     1     6     4     8
 0.0001944433     1     6     4     9
 0.0051439854     1     6     4    15
 0.0052095914     1     6     4    16
 0.0001652075     1     6     5    12
 -0.0000006554     1     6     5    13
 -0.5195920207     1     6     6     1
 -0.0000000002     1     6     6     2
 0.0183299065     1     6     6     3
 -0.0020768949     1     6     6     5
 0.0044469898     1     6     6    11
 0.0095184271     1     6     6    17
 -0.0039444762     1     6     6    19
 0.0000000006     1     6     7     2
 0.0000000002     1     6     8     1
 -0.1872833919     1     6     8     2
 0.0103381710     1     6     8     4
 0.0014985440     1     6     8    10
 0.0035765531     1     6     8    14
 0.0041001353     1     6     8    18
 0.0000000003     1     6     9     1
 -0.2850952612     1     6     9     2
 0.0157374529     1     6     9     4
 0.0022811835     1     6     9    10
 0.0054444676     1     6     9    14
 0.0062414992     1     6     9    18
 -0.0000086535     1     6    10     8
 -0.0000131730     1     6    10     9
 0.0002620237     1     6    10    15
 0.0002653656     1     6    10    16
 -0.0009414666     1     6    11    12
 0.0000037352     1     6    11    13
 0.2038718556     1     6    12     1
 0.0000000001     1     6    12     2
 -0.0153881898     1     6    12     3
 0.0012625050     1     6    12     5
 -0.0084443148     1     6    12    11
 -0.0134381176     1     6    12    17
 0.0016031419     1     6    12    19
 -0.0008088498     1     6    13     1
 -0.0000000002     1     6    13     2
 0.0000610518     1     6    13     3
 -0.0000050089     1     6    13     5
 0.0000335023     1     6    13    11
 0.0000533150     1     6    13    17
 -0.0000063604     1     6    13    19
 -0.0000167015     1     6    14     8
 -0.0000254241     1     6    14     9
 -0.0009655649     1     6    14    15
 -0.0009778797     1     6    14    16
 0.1361821971     1     6    15     2
 -0.0108160284     1     6    15     4
 -0.0011059089     1     6    15    10
 -0.0076412649     1     6    15    14
 -0.0077668730     1     6    15    18
 -0.0000000003     1     6    16     1
 0.1379190548     1     6    16     2
 -0.0109539752     1     6    16     4
 -0.0011200135     1     6    16    10
 -0.0077387211     1     6    16    14
 -0.0078659311     1     6    16    18
 -0.0020703021     1     6    17    12
 0.0000082138     1     6    17    13
 -0.0001059468     1     6    18     8
 -0.0001612794     1     6    18     9
 -0.0017792876     1     6    18    15
 -0.0018019805     1     6    18    16
 -0.0034465171     1     6    19    12
 0.0000136738     1     6    19    13
 0.0000221631     1     7     2     8
 -0.0000145593     1     7     2     9
 0.0000225298     1     7     2    15
 -0.0000222461     1     7     2    16
 0.0000297297     1     7     3    12
 0.0074934250     1     7     3    13
 0.0001944433     1     7     4     8
 -0.0001277328     1     7     4     9
 -0.0052095914     1     7     4    15
 0.0051439854     1     7     4    16
 0.0000006554     1     7     5    12
 0.0001652075     1     7     5    13
 0.0000000006     1     7     6     2
 -0.5195920207     1     7     7     1
 0.0000000002     1     7     7     2
 0.0183299065     1     7     7     3
 -0.0020768949     1     7     7     5
 0.0044469898     1     7     7    11
 0.0095184271     1     7     7    17
 -0.0039444762     1     7     7    19
 0.0000000004     1     7     8     1
 -0.2850952612     1     7     8     2
 0.0157374529     1     7     8     4
 0.0022811835     1     7     8    10
 0.0054444676     1     7     8    14
 0.0062414992     1     7     8    18
 -0.0000000002     1     7     9     1
 0.1872833919     1     7     9     2
 -0.0103381710     1     7     9     4
 -0.0014985440     1     7     9    10
 -0.0035765531     1     7     9    14
 -0.0041001353     1     7     9    18
 -0.0000131730     1     7    10     8
 0.0000086535     1     7    10     9
 -0.0002653656     1     7    10    15
 0.0002620237     1     7    10    16
 -0.0000037352     1     7    11    12
 -0.0009414666     1     7    11    13
 0.0008088498     1     7    12     1
 -0.0000000002     1     7    12     2
 -0.0000610518     1     7    12     3
 0.0000050089     1     7    12     5
 -0.0000335023     1     7    12    11
 -0.0000533150     1     7    12    17
 0.0000063604     1     7    12    19
 0.2038718556     1     7    13     1
 -0.0000000001     1     7    13     2
 -0.0153881898     1     7    13     3
 0.0012625050     1     7    13     5
 -0.0084443148     1     7    13    11
 -0.0134381176     1     7    13    17
 0.0016031419     1     7    13    19
 -0.0000254241     1     7    14     8
 0.0000167015     1     7    14     9
 0.0009778797     1     7    14    15
 -0.0009655649     1     7    14    16
 0.0000000001     1     7    15     1
 -0.1379190548     1     7    15     2
 0.0109539752     1     7    15     4
 0.0011200135     1     7    15    10
 0.0077387211     1     7    15    14
 0.0078659311     1     7    15    18
 -0.0000000003     1     7    16     1
 0.1361821971     1     7    16     2
 -0.0108160284     1     7    16     4
 -0.0011059089     1     7    16    10
 -0.0076412649     1     7    16    14
 -0.0077668730     1     7    16    18
 -0.0000082138     1     7    17    12
 -0.0020703021     1     7    17    13
 -0.0001612794     1     7    18     8
 0.0001059468     1     7    18     9
 0.0018019805     1     7    18    15
 -0.0017792876     1     7    18    16
 -0.0000136738     1     7    19    12
 -0.0034465171     1     7    19    13
 -0.0000145593     1     8     2     6
 -0.0000221631     1     8     2     7
 0.0000165121     1     8     2    12
 0.0000249199     1     8     2    13
 -0.0015178871     1     8     3    15
 0.0071035745     1     8     3    16
 -0.0001277328     1     8     4     6
 -0.0001944433     1     8     4     7
 0.0041093274     1     8     4    12
 0.0062017330     1     8     4    13
 0.0001337715     1     8     5    15
 -0.0006260384     1     8     5    16
 0.0000000002     1     8     6     1
 -0.1872979512     1     8     6     2
 0.0102104382     1     8     6     4
 0.0015071975     1     8     6    10
 0.0035932546     1     8     6    14
 0.0042060821     1     8     6    18
 0.0000000004     1     8     7     1
 -0.2851174243     1     8     7     2
 0.0155430096     1     8     7     4
 0.0022943565     1     8     7    10
 0.0054698917     1     8     7    14
 0.0064027786     1     8     7    18
 -0.5275898886     1     8     8     1
 -0.0000000006     1     8     8     2
 0.0187279183     1     8     8     3
 -0.0021043926     1     8     8     5
 0.0052576064     1     8     8    11
 0.0099018378     1     8     8    17
 -0.0039522565     1     8     8    19
 -0.0000000001     1     8     9     2
 0.0000086535     1     8    10     6
 0.0000131730     1     8    10     7
 0.0003187151     1     8    10    12
 0.0004809999     1     8    10    13
 0.0000717875     1     8    11    15
 -0.0003359590     1     8    11    16
 0.1150990311     1     8    12     2
 -0.0089142406     1     8    12     4
 -0.0009723406     1     8    12    10
 -0.0058936226     1     8    12    14
 -0.0061750426     1     8    12    18
 -0.0000000001     1     8    13     1
 0.1737056715     1     8    13     2
 -0.0134532336     1     8    13     4
 -0.0014674413     1     8    13    10
 -0.0088945638     1     8    13    14
 -0.0093192785     1     8    13    18
 0.0000167015     1     8    14     6
 0.0000254241     1     8    14     7
 -0.0007122051     1     8    14    12
 -0.0010748489     1     8    14    13
 -0.0428511175     1     8    15     1
 0.0032446812     1     8    15     3
 -0.0002429665     1     8    15     5
 0.0016323619     1     8    15    11
 0.0028561942     1     8    15    17
 -0.0003233116     1     8    15    19
 0.2005393568     1     8    16     1
 0.0000000002     1     8    16     2
 -0.0151848147     1     8    16     3
 0.0011370610     1     8    16     5
 -0.0076393059     1     8    16    11
 -0.0133667306     1     8    16    17
 0.0015130690     1     8    16    19
 0.0003442444     1     8    17    15
 -0.0016110328     1     8    17    16
 0.0001059468     1     8    18     6
 0.0001612794     1     8    18     7
 -0.0013023572     1     8    18    12
 -0.0019654973     1     8    18    13
 0.0007252158     1     8    19    15
 -0.0033939444     1     8    19    16
 -0.0000221631     1     9     2     6
 0.0000145593     1     9     2     7
 0.0000249199     1     9     2    12
 -0.0000165121     1     9     2    13
 0.0071035745     1     9     3    15
 0.0015178871     1     9     3    16
 -0.0001944433     1     9     4     6
 0.0001277328     1     9     4     7
 0.0062017330     1     9     4    12
 -0.0041093274     1     9     4    13
 -0.0006260384     1     9     5    15
 -0.0001337715     1     9     5    16
 0.0000000003     1     9     6     1
 -0.2851174243     1     9     6     2
 0.0155430096     1     9     6     4
 0.0022943565     1     9     6    10
 0.0054698917     1     9     6    14
 0.0064027786     1     9     6    18
 -0.0000000002     1     9     7     1
 0.1872979512     1     9     7     2
 -0.0102104382     1     9     7     4
 -0.0015071975     1     9     7    10
 -0.0035932546     1     9     7    14
 -0.0042060821     1     9     7    18
 -0.0000000001     1     9     8     2
 -0.5275898886     1     9     9     1
 0.0000000006     1     9     9     2
 0.0187279183     1     9     9     3
 -0.0021043926     1     9     9     5
 0.0052576064     1     9     9    11
 0.0099018378     1     9     9    17
 -0.0039522565     1     9     9    19
 0.0000131730     1     9    10     6
 -0.0000086535     1     9    10     7
 0.0004809999     1     9    10    12
 -0.0003187151     1     9    10    13
 -0.0003359590     1     9    11    15
 -0.0000717875     1     9    11    16
 -0.0000000003     1     9    12     1
 0.1737056715     1     9    12     2
 -0.0134532336     1     9    12     4
 -0.0014674413     1     9    12    10
 -0.0088945638     1     9    12    14
 -0.0093192785     1     9    12    18
 0.0000000003     1     9    13     1
 -0.1150990311     1     9    13     2
 0.0089142406     1     9    13     4
 0.0009723406     1     9    13    10
 0.0058936226     1     9    13    14
 0.0061750426     1     9    13    18
 0.0000254241     1     9    14     6
 -0.0000167015     1     9    14     7
 -0.0010748489     1     9    14    12
 0.0007122051     1     9    14    13
 0.2005393568     1     9    15     1
 -0.0000000002     1     9    15     2
 -0.0151848147     1     9    15     3
 0.0011370610     1     9    15     5
 -0.0076393059     1     9    15    11
 -0.0133667306     1     9    15    17
 0.0015130690     1     9    15    19
 0.0428511175     1     9    16     1
 -0.0032446812     1     9    16     3
 0.0002429665     1     9    16     5
 -0.0016323619     1     9    16    11
 -0.0028561942     1     9    16    17
 0.0003233116     1     9    16    19
 -0.0016110328     1     9    17    15
 -0.0003442444     1     9    17    16
 0.0001612794     1     9    18     6