&FCI NORB= 19,NELEC= 14,MS2=0,
 ORBSYM=1,1,1,1,1,1,1,1,1,1,1,1,1,1,1,1,1,1,1
 ISYM=1,
&END
 0.5376285973     1     1     2     2
 0.0105787321     1     1     2     4
 0.0020048203     1     1     2    10
 0.0195950293     1     1     2    17
 0.8607978502     1     1     3     3
 0.1155963548     1     1     3     7
 -0.1000829184     1     1     3    11
 0.1093346735     1     1     3    14
 0.0105787321     1     1     4     2
 0.6453994572     1     1     4     4
 0.1324642053     1     1     4    10
 0.1169087678     1     1     4    17
 0.7088747218     1     1     5     5
 0.0860488840     1     1     5    12
 -0.2083131619     1     1     5    13
 0.7088747218     1     1     6     6
 -0.2083131619     1     1     6    12
 -0.0860488840     1     1     6    13
 0.1155963548     1     1     7     3
 0.6898271343     1     1     7     7
 -0.1480969417     1     1     7    11
 -0.1538547264     1     1     7    14
 0.5941460819     1     1     8     8
 -0.1886893637     1     1     8    15
 0.1713561552     1     1     8    16
 0.5941460819     1     1     9     9
 -0.1713561552     1     1     9    15
 -0.1886893637     1     1     9    16
 0.0020048203     1     1    10     2
 0.1324642053     1     1    10     4
 0.3788320959     1     1    10    10
 -0.0126123437     1     1    10    17
 -0.1000829184     1     1    11     3
 -0.1480969417     1     1    11     7
 0.4706406277     1     1    11    11
 -0.0105305173     1     1    11    14
 0.0860488840     1     1    12     5
 -0.2083131619     1     1    12     6
 0.5641536445     1     1    12    12
 -0.2083131619     1     1    13     5
 -0.0860488840     1     1    13     6
 0.5641536445     1     1    13    13
 0.1093346735     1     1    14     3
 -0.1538547264     1     1    14     7
 -0.0105305173     1     1    14    11
 0.5665813912     1     1    14    14
 -0.1886893637     1     1    15     8
 -0.1713561552     1     1    15     9
 0.6374151468     1     1    15    15
 0.1713561552     1     1    16     8
 -0.1886893637     1     1    16     9
 0.6374151468     1     1    16    16
 0.0195950293     1     1    17     2
 0.1169087678     1     1    17     4
 -0.0126123437     1     1    17    10
 0.6885332071     1     1    17    17
 0.6178502927     1     1    18    18
 0.6178502927     1     1    19    19
 -0.5376285973     1     2     2     1
 -0.0151086470     1     2     2     3
 -0.0213743890     1     2     2     7
 0.0131922300     1     2     2    11
 0.0084546147     1     2     2    14
 -0.1180746380     1     2     3     4
 -0.0785680812     1     2     3    10
 0.1003259939     1     2     3    17
 -0.0105787321     1     2     4     1
 -0.1186686784     1     2     4     3
 0.2339659427     1     2     4     7
 -0.0239373986     1     2     4    11
 -0.1558780337     1     2     4    14
 0.1645919806     1     2     5     8
 0.1225966691     1     2     5     9
 -0.1885931977     1     2     5    15
 0.0183692819     1     2     5    16
 -0.1225966691     1     2     6     8
 0.1645919806     1     2     6     9
 -0.0183692819     1     2     6    15
 -0.1885931977     1     2     6    16
 0.2348123192     1     2     7     4
 0.0325141101     1     2     7    10
 0.1944052999     1     2     7    17
 0.1640700211     1     2     8     5
 -0.1222078865     1     2     8     6
 0.0858910754     1     2     8    12
 -0.0513539901     1     2     8    13
 0.1222078865     1     2     9     5
 0.1640700211     1     2     9     6
 -0.0513539901     1     2     9    12
 -0.0858910754     1     2     9    13
 -0.0020048203     1     2    10     1
 -0.0786850118     1     2    10     3
 0.0323396586     1     2    10     7
 -0.0619702422     1     2    10    11
 -0.0968859235     1     2    10    14
 -0.0244836878     1     2    11     4
 -0.0620833274     1     2    11    10
 -0.0755178042     1     2    11    17
 0.0864109823     1     2    12     8
 -0.0516648407     1     2    12     9
 -0.0586740954     1     2    12    15
 0.1933481555     1     2    12    16
 -0.0516648407     1     2    13     8
 -0.0864109823     1     2    13     9
 0.1933481555     1     2    13    15
 0.0586740954     1     2    13    16
 -0.1561957936     1     2    14     4
 -0.0969538063     1     2    14    10
 -0.1607849596     1     2    14    17
 -0.1877004216     1     2    15     5
 -0.0182823241     1     2    15     6
 -0.0584314531     1     2    15    12
 0.1925485788     1     2    15    13
 0.0182823241     1     2    16     5
 -0.1877004216     1     2    16     6
 0.1925485788     1     2    16    12
 0.0584314531     1     2    16    13
 -0.0195950293     1     2    17     1
 0.0992318839     1     2    17     3
 0.1928776334     1     2    17     7
 -0.0745329630     1     2    17    11
 -0.1602216290     1     2    17    14
 0.0151086470     1     3     2     2
 0.0005940404     1     3     2     4
 0.0001169306     1     3     2    10
 0.0010941100     1     3     2    17
 -0.8607978502     1     3     3     1
 -0.0261163184     1     3     3     7
 0.0161231635     1     3     3    11
 0.0192139781     1     3     3    14
 0.1186686784     1     3     4     2
 -0.0112453343     1     3     4     4
 -0.0021800661     1     3     4    10
 -0.0149478448     1     3     4    17
 -0.0182449104     1     3     5     5
 -0.0079600898     1     3     5    12
 0.0192703425     1     3     5    13
 -0.0182449104     1     3     6     6
 0.0192703425     1     3     6    12
 0.0079600898     1     3     6    13
 -0.1155963548     1     3     7     1
 -0.0257415240     1     3     7     7
 0.0103216808     1     3     7    11
 0.0202290669     1     3     7    14
 -0.0125238309     1     3     8     8
 0.0128564944     1     3     8    15
 -0.0116754830     1     3     8    16
 -0.0125238309     1     3     9     9
 0.0116754830     1     3     9    15
 0.0128564944     1     3     9    16
 0.0786850118     1     3    10     2
 -0.0008614104     1     3    10     4
 -0.0015381543     1     3    10    10
 -0.0035460546     1     3    10    17
 0.1000829184     1     3    11     1
 0.0107784556     1     3    11     7
 -0.0056267187     1     3    11    11
 -0.0122284623     1     3    11    14
 -0.0048846552     1     3    12     5
 0.0118251151     1     3    12     6
 -0.0129099712     1     3    12    12
 0.0118251151     1     3    13     5
 0.0048846552     1     3    13     6
 -0.0129099712     1     3    13    13
 -0.1093346735     1     3    14     1
 0.0076540097     1     3    14     7
 -0.0040441163     1     3    14    11
 -0.0057555418     1     3    14    14
 0.0103704952     1     3    15     8
 0.0094178504     1     3    15     9
 -0.0202461974     1     3    15    15
 -0.0094178504     1     3    16     8
 0.0103704952     1     3    16     9
 -0.0202461974     1     3    16    16
 -0.0992318839     1     3    17     2
 -0.0171585478     1     3    17     4
 -0.0064165796     1     3    17    10
 -0.0180127496     1     3    17    17
 0.0018921576     1     3    18    18
 0.0018921576     1     3    19    19
 -0.0105787321     1     4     2     1
 -0.0005940404     1     4     2     3
 -0.0008463765     1     4     2     7
 0.0005462892     1     4     2    11
 0.0003177599     1     4     2    14
 0.1180746380     1     4     3     2
 -0.0013186557     1     4     3    10
 0.0022107030     1     4     3    17
 -0.6453994572     1     4     4     1
 0.0112453343     1     4     4     3
 0.0015698883     1     4     4     7
 -0.0067159124     1     4     4    11
 0.0003025244     1     4     4    14
 0.0084757777     1     4     5     8
 0.0063132001     1     4     5     9
 -0.0174377383     1     4     5    15
 0.0016984638     1     4     5    16
 -0.0063132001     1     4     6     8
 0.0084757777     1     4     6     9
 -0.0016984638     1     4     6    15
 -0.0174377383     1     4     6    16
 -0.2348123192     1     4     7     2
 -0.0013985656     1     4     7    10
 0.0208788327     1     4     7    17
 0.0118064215     1     4     8     5
 -0.0087940369     1     4     8     6
 0.0151221794     1     4     8    12
 -0.0090415011     1     4     8    13
 0.0087940369     1     4     9     5
 0.0118064215     1     4     9     6
 -0.0090415011     1     4     9    12
 -0.0151221794     1     4     9    13
 -0.1324642053     1     4    10     1
 0.0008614104     1     4    10     3
 -0.0010446082     1     4    10     7
 0.0023584880     1     4    10    11
 0.0026174718     1     4    10    14
 0.0244836878     1     4    11     2
 0.0036677363     1     4    11    10
 -0.0048615214     1     4    11    17
 0.0077810635     1     4    12     8
 -0.0046522722     1     4    12     9
 -0.0031698209     1     4    12    15
 0.0104454786     1     4    12    16
 -0.0046522722     1     4    13     8
 -0.0077810635     1     4    13     9
 0.0104454786     1     4    13    15
 0.0031698209     1     4    13    16
 0.1561957936     1     4    14     2
 0.0026519557     1     4    14    10
 -0.0079458219     1     4    14    17
 -0.0141719395     1     4    15     5
 -0.0013803698     1     4    15     6
 -0.0040796858     1     4    15    12
 0.0134437474     1     4    15    13
 0.0013803698     1     4    16     5
 -0.0141719395     1     4    16     6
 0.0134437474     1     4    16    12
 0.0040796858     1     4    16    13
 -0.1169087678     1     4    17     1
 0.0171585478     1     4    17     3
 0.0109885552     1     4    17     7
 -0.0108307280     1     4    17    11
 0.0006038472     1     4    17    14
 0.0005219595     1     5     2     8
 0.0003887826     1     5     2     9
 -0.0008927761     1     5     2    15
 0.0000869578     1     5     2    16
 -0.0030754346     1     5     3    12
 0.0074452274     1     5     3    13
 -0.0033306438     1     5     4     8
 -0.0024808368     1     5     4     9
 -0.0032657988     1     5     4    15
 0.0003180940     1     5     4    16
 -0.7088747218     1     5     5     1
 0.0182449104     1     5     5     3
 -0.0167217007     1     5     5     7
 0.0080938551     1     5     5    11
 0.0136500806     1     5     5    14
 -0.0081987648     1     5     5    18
 0.0060902731     1     5     5    19
 0.0060902731     1     5     6    18
 0.0081987648     1     5     6    19
 0.0020338846     1     5     7    12
 -0.0049237702     1     5     7    13
 -0.1640700211     1     5     8     2
 -0.0118064215     1     5     8     4
 -0.0064298462     1     5     8    10
 0.0074984939     1     5     8    17
 -0.1222078865     1     5     9     2
 -0.0087940369     1     5     9     4
 -0.0047892840     1     5     9    10
 0.0055852684     1     5     9    17
 -0.0007984568     1     5    10     8
 -0.0005947322     1     5    10     9
 -0.0000910452     1     5    10    15
 0.0000088680     1     5    10    16
 -0.0019115631     1     5    11    12
 0.0046276456     1     5    11    13
 -0.0860488840     1     5    12     1
 0.0048846552     1     5    12     3
 -0.0026397254     1     5    12     7
 0.0001676797     1     5    12    11
 0.0065216172     1     5    12    14
 -0.0023942100     1     5    12    18
 -0.0014357283     1     5    12    19
 0.2083131619     1     5    13     1
 -0.0118251151     1     5    13     3
 0.0063904319     1     5    13     7
 -0.0004059308     1     5    13    11
 -0.0157879875     1     5    13    14
 0.0014357283     1     5    13    18
 -0.0023942100     1     5    13    19
 0.0018895055     1     5    14    12
 -0.0045742473     1     5    14    13
 0.1877004216     1     5    15     2
 0.0141719395     1     5    15     4
 0.0102875393     1     5    15    10
 -0.0010194231     1     5    15    17
 -0.0182823241     1     5    16     2
 -0.0013803698     1     5    16     4
 -0.0010020229     1     5    16    10
 0.0000992935     1     5    16    17
 0.0014032668     1     5    17     8
 0.0010452261     1     5    17     9
 0.0042798443     1     5    17    15
 -0.0004168637     1     5    17    16
 0.0068260709     1     5    18    12
 -0.0040933683     1     5    18    13
 0.0040933683     1     5    19    12
 0.0068260709     1     5    19    13
 -0.0003887826     1     6     2     8
 0.0005219595     1     6     2     9
 -0.0000869578     1     6     2    15
 -0.0008927761     1     6     2    16
 0.0074452274     1     6     3    12
 0.0030754346     1     6     3    13
 0.0024808368     1     6     4     8
 -0.0033306438     1     6     4     9
 -0.0003180940     1     6     4    15
 -0.0032657988     1     6     4    16
 0.0060902731     1     6     5    18
 0.0081987648     1     6     5    19
 -0.7088747218     1     6     6     1
 0.0182449104     1     6     6     3
 -0.0167217007     1     6     6     7
 0.0080938551     1     6     6    11
 0.0136500806     1     6     6    14
 0.0081987648     1     6     6    18
 -0.0060902731     1     6     6    19
 -0.0049237702     1     6     7    12
 -0.0020338846     1     6     7    13
 0.1222078865     1     6     8     2
 0.0087940369     1     6     8     4
 0.0047892840     1     6     8    10
 -0.0055852684     1     6     8    17
 -0.1640700211     1     6     9     2
 -0.0118064215     1     6     9     4
 -0.0064298462     1     6     9    10
 0.0074984939     1     6     9    17
 0.0005947322     1     6    10     8
 -0.0007984568     1     6    10     9
 -0.0000088680     1     6    10    15
 -0.0000910452     1     6    10    16
 0.0046276456     1     6    11    12
 0.0019115631     1     6    11    13
 0.2083131619     1     6    12     1
 -0.0118251151     1     6    12     3
 0.0063904319     1     6    12     7
 -0.0004059308     1     6    12    11
 -0.0157879875     1     6    12    14
 -0.0014357283     1     6    12    18
 0.0023942100     1     6    12    19
 0.0860488840     1     6    13     1
 -0.0048846552     1     6    13     3
 0.0026397254     1     6    13     7
 -0.0001676797     1     6    13    11
 -0.0065216172     1     6    13    14
 -0.0023942100     1     6    13    18
 -0.0014357283     1     6    13    19
 -0.0045742473     1     6    14    12
 -0.0018895055     1     6    14    13
 0.0182823241     1     6    15     2
 0.0013803698     1     6    15     4
 0.0010020229     1     6    15    10
 -0.0000992935     1     6    15    17
 0.1877004216     1     6    16     2
 0.0141719395     1     6    16     4
 0.0102875393     1     6    16    10
 -0.0010194231     1     6    16    17
 -0.0010452261     1     6    17     8
 0.0014032668     1     6    17     9
 0.0004168637     1     6    17    15
 0.0042798443     1     6    17    16
 0.0040933683     1     6    18    12
 0.0068260709     1     6    18    13
 -0.0068260709     1     6    19    12
 0.0040933683     1     6    19    13
 0.0213743890     1     7     2     2
 0.0008463765     1     7     2     4
 0.0001744515     1     7     2    10
 0.0015276665     1     7     2    17
 -0.1155963548     1     7     3     1
 0.0261163184     1     7     3     3
 -0.0004567748     1     7     3    11
 0.0125750572     1     7     3    14
 -0.2339659427     1     7     4     2
 -0.0015698883     1     7     4     4
 -0.0003539574     1     7     4    10
 0.0098902775     1     7     4    17
 0.0167217007     1     7     5     5
 0.0046736100     1     7     5    12
 -0.0113142021     1     7     5    13
 0.0167217007     1     7     6     6
 -0.0113142021     1     7     6    12
 -0.0046736100     1     7     6    13
 -0.6898271343     1     7     7     1
 0.0257415240     1     7     7     3
 -0.0094311950     1     7     7    11
 0.0119012283     1     7     7    14
 0.0086091485     1     7     8     8
 -0.0089558235     1     7     8    15
 0.0081331319     1     7     8    16
 0.0086091485     1     7     9     9
 -0.0081331319     1     7     9    15
 -0.0089558235     1     7     9    16
 -0.0323396586     1     7    10     2
 0.0010446082     1     7    10     4
 -0.0013564777     1     7    10    10
 -0.0018608321     1     7    10    17
 0.1480969417     1     7    11     1
 -0.0107784556     1     7    11     3
 0.0029778269     1     7    11    11
 -0.0113164103     1     7    11    14
 0.0026397254     1     7    12     5
 -0.0063904319     1     7    12     6
 0.0077542657     1     7    12    12
 -0.0063904319     1     7    13     5
 -0.0026397254     1     7    13     6
 0.0077542657     1     7    13    13
 0.1538547264     1     7    14     1
 -0.0076540097     1     7    14     3
 0.0012088924     1     7    14    11
 -0.0014015765     1     7    14    14
 -0.0057729161     1     7    15     8
 -0.0052426097     1     7    15     9
 0.0108043820     1     7    15    15
 0.0052426097     1     7    16     8
 -0.0057729161     1     7    16     9
 0.0108043820     1     7    16    16
 -0.1928776334     1     7    17     2
 -0.0109885552     1     7    17     4
 -0.0083773315     1     7    17    10
 0.0113060883     1     7    17    17
 0.0086644448     1     7    18    18
 0.0086644448     1     7    19    19
 -0.0005219595     1     8     2     5
 0.0003887826     1     8     2     6
 -0.0005199069     1     8     2    12
 0.0003108506     1     8     2    13
 0.0024859992     1     8     3    15
 -0.0022576326     1     8     3    16
 0.0033306438     1     8     4     5
 -0.0024808368     1     8     4     6
 0.0073411159     1     8     4    12
 -0.0043892289     1     8     4    13
 -0.1645919806     1     8     5     2
 -0.0084757777     1     8     5     4
 -0.0056313894     1     8     5    10
 0.0060952271     1     8     5    17
 0.1225966691     1     8     6     2
 0.0063132001     1     8     6     4
 0.0041945518     1     8     6    10
 -0.0045400423     1     8     6    17
 -0.0031829074     1     8     7    15
 0.0028905222     1     8     7    16
 -0.5941460819     1     8     8     1
 0.0125238309     1     8     8     3
 -0.0086091485     1     8     8     7
 0.0008589831     1     8     8    11
 0.0087659609     1     8     8    14
 -0.0037755673     1     8     8    18
 -0.0028198951     1     8     8    19
 -0.0028198951     1     8     9    18
 0.0037755673     1     8     9    19
 0.0007984568     1     8    10     5
 -0.0005947322     1     8    10     6
 0.0020911236     1     8    10    12
 -0.0012502759     1     8    10    13
 0.0002212165     1     8    11    15
 -0.0002008953     1     8    11    16
 -0.0864109823     1     8    12     2
 -0.0077810635     1     8    12     4
 -0.0053103541     1     8    12    10
 -0.0008401121     1     8    12    17
 0.0516648407     1     8    13     2
 0.0046522722     1     8    13     4
 0.0031750432     1     8    13    10
 0.0005023002     1     8    13    17
 -0.0008064038     1     8    14    15
 0.0007323267     1     8    14    16
 0.1886893637     1     8    15     1
 -0.0103704952     1     8    15     3
 0.0057729161     1     8    15     7
 -0.0008245045     1     8    15    11
 -0.0102133510     1     8    15    14
 0.0034831193     1     8    15    18
 -0.0003346806     1     8    15    19
 -0.1713561552     1     8    16     1
 0.0094178504     1     8    16     3
 -0.0052426097     1     8    16     7
 0.0007487647     1     8    16    11
 0.0092751416     1     8    16    14
 -0.0003346806     1     8    16    18
 -0.0034831193     1     8    16    19
 -0.0014032668     1     8    17     5
 0.0010452261     1     8    17     6
 -0.0034732521     1     8    17    12
 0.0020766459     1     8    17    13
 -0.0037672926     1     8    18    15
 0.0003619858     1     8    18    16
 0.0003619858     1     8    19    15
 0.0037672926     1     8    19    16
 -0.0003887826     1     9     2     5
 -0.0005219595     1     9     2     6
 0.0003108506     1     9     2    12
 0.0005199069     1     9     2    13
 0.0022576326     1     9     3    15
 0.0024859992     1     9     3    16
 0.0024808368     1     9     4     5
 0.0033306438     1     9     4     6
 -0.0043892289     1     9     4    12
 -0.0073411159     1     9     4    13
 -0.1225966691     1     9     5     2
 -0.0063132001     1     9     5     4
 -0.0041945518     1     9     5    10
 0.0045400423     1     9     5    17
 -0.1645919806     1     9     6     2
 -0.0084757777     1     9     6     4
 -0.0056313894     1     9     6    10
 0.0060952271     1     9     6    17
 -0.0028905222     1     9     7    15
 -0.0031829074     1     9     7    16
 -0.0028198951     1     9     8    18
 0.0037755673     1     9     8    19
 -0.5941460819     1     9     9     1
 0.0125238309     1     9     9     3
 -0.0086091485     1     9     9     7
 0.0008589831     1     9     9    11
 0.0087659609     1     9     9    14
 0.0037755673     1     9     9    18
 0.0028198951     1     9     9    19
 0.0005947322     1     9    10     5
 0.0007984568     1     9    10     6
 -0.0012502759     1     9    10    12
 -0.0020911236     1     9    10    13
 0.0002008953     1     9    11    15
 0.0002212165     1     9    11    16
 0.0516648407     1     9    12     2
 0.0046522722     1     9    12     4
 0.0031750432     1     9    12    10
 0.0005023002     1     9    12    17
 0.0864109823     1     9    13     2
 0.0077810635     1     9    13     4
 0.0053103541     1     9    13    10
 0.0008401121     1     9    13    17
 -0.0007323267     1     9    14    15
 -0.0008064038     1     9    14    16
 0.1713561552     1     9    15     1
 -0.0094178504     1     9    15     3
 0.0052426097     1     9    15     7
 -0.0007487647     1     9    15    11
 -0.0092751416     1     9    15    14
 -0.0003346806     1     9    15    18
 -0.0034831193     1     9    15    19
 0.1886893637     1     9    16     1
 -0.0103704952     1     9    16     3
 0.0057729161     1     9    16     7
 -0.0008245045     1     9    16    11
 -0.0102133510     1     9    16    14
 -0.0034831193     1     9    16    18
 0.0003346806     1     9    16    19
 -0.0010452261     1     9    17     5
 -0.0014032668     1     9    17     6
 0.0020766459     1     9    17    12
 0.0034732521     1     9    17    13
 0.0003619858     1     9    18    15
 0.0037672926     1     9    18    16
 0.0037672926     1     9    19    15
 -0.0003619858     1     9    19    16
 -0.0020048203     1    10     2     1
 -0.0001169306     1    10     2     3
 -0.0001744515     1    10     2     7
 0.0001130852     1    10     2    11
 0.0000678828     1    10     2    14
 0.0785680812     1    10     3     2
 0.0013186557     1    10     3     4
 0.0028705250     1    10     3    17
 -0.1324642053     1    10     4     1
 0.0021800661     1    10     4     3
 0.0003539574     1    10     4     7
 -0.0013092483     1    10     4    11
 -0.0000344839     1    10     4    14
 0.0056313894     1    10     5     8
 0.0041945518     1    10     5     9
 -0.0103785845     1    10     5    15
 0.0010108909     1    10     5    16
 -0.0041945518     1    10     6     8
 0.0056313894     1    10     6     9
 -0.0010108909     1    10     6    15
 -0.0103785845     1    10     6    16
 -0.0325141101     1    10     7     2
 0.0013985656     1    10     7     4
 0.0065164994     1    10     7    17
 0.0064298462     1    10     8     5
 -0.0047892840     1    10     8     6
 0.0074014777     1    10     8    12
 -0.0044253191     1    10     8    13
 0.0047892840     1    10     9     5
 0.0064298462     1    10     9     6
 -0.0044253191     1    10     9    12
 -0.0074014777     1    10     9    13
 -0.3788320959     1    10    10     1
 0.0015381543     1    10    10     3
 0.0013564777     1    10    10     7
 -0.0006104138     1    10    10    11
 -0.0003713041     1    10    10    14
 0.0620833274     1    10    11     2
 -0.0036677363     1    10    11     4
 -0.0087844659     1    10    11    17
 0.0053103541     1    10    12     8
 -0.0031750432     1    10    12     9
 -0.0024925074     1    10    12    15
 0.0082135345     1    10    12    16
 -0.0031750432     1    10    13     8
 -0.0053103541     1    10    13     9
 0.0082135345     1    10    13    15
 0.0024925074     1    10    13    16
 0.0969538063     1    10    14     2
 -0.0026519557     1    10    14     4
 -0.0073512080     1    10    14    17
 -0.0102875393     1    10    15     5
 -0.0010020229     1    10    15     6
 -0.0030450272     1    10    15    12
 0.0100342474     1    10    15    13
 0.0010020229     1    10    16     5
 -0.0102875393     1    10    16     6
 0.0100342474     1    10    16    12
 0.0030450272     1    10    16    13
 0.0126123437     1    10    17     1
 0.0064165796     1    10    17     3
 0.0083773315     1    10    17     7
 -0.0058253608     1    10    17    11
 -0.0034615629     1    10    17    14
 -0.0131922300     1    11     2     2
 -0.0005462892     1    11     2     4
 -0.0001130852     1    11     2    10
 -0.0009848412     1    11     2    17
 0.1000829184     1    11     3     1
 -0.0161231635     1    11     3     3
 0.0004567748     1    11     3     7
 -0.0081843460     1    11     3    14
 0.0239373986     1    11     4     2
 0.0067159124     1    11     4     4
 0.0013092483     1    11     4    10
 0.0059692066     1    11     4    17
 -0.0080938551     1    11     5     5
 -0.0020792428     1    11     5    12
 0.0050335764     1    11     5    13
 -0.0080938551     1    11     6     6
 0.0050335764     1    11     6    12
 0.0020792428     1    11     6    13
 0.1480969417     1    11     7     1
 -0.0103216808     1    11     7     3
 0.0094311950     1    11     7     7
 -0.0125253027     1    11     7    14
 -0.0008589831     1    11     8     8
 0.0010457210     1    11     8    15
 -0.0009496600     1    11     8    16
 -0.0008589831     1    11     9     9
 0.0009496600     1    11     9    15
 0.0010457210     1    11     9    16
 0.0619702422     1    11    10     2
 -0.0023584880     1    11    10     4
 0.0006104138     1    11    10    10
 -0.0029591051     1    11    10    17
 -0.4706406277     1    11    11     1
 0.0056267187     1    11    11     3
 -0.0029778269     1    11    11     7
 0.0084665223     1    11    11    14
 -0.0001676797     1    11    12     5
 0.0004059308     1    11    12     6
 -0.0007292559     1    11    12    12
 0.0004059308     1    11    13     5
 0.0001676797     1    11    13     6
 -0.0007292559     1    11    13    13
 0.0105305173     1    11    14     1
 0.0040441163     1    11    14     3
 -0.0012088924     1    11    14     7
 0.0019992755     1    11    14    14
 0.0008245045     1    11    15     8
 0.0007487647     1    11    15     9
 -0.0013537126     1    11    15    15
 -0.0007487647     1    11    16     8
 0.0008245045     1    11    16     9
 -0.0013537126     1    11    16    16
 0.0745329630     1    11    17     2
 0.0108307280     1    11    17     4
 0.0058253608     1    11    17    10
 0.0022477636     1    11    17    17
 -0.0047737527     1    11    18    18
 -0.0047737527     1    11    19    19
 0.0005199069     1    12     2     8
 -0.0003108506     1    12     2     9
 -0.0002426423     1    12     2    15
 0.0007995767     1    12     2    16
 0.0030754346     1    12     3     5
 -0.0074452274     1    12     3     6
 -0.0073411159     1    12     4     8
 0.0043892289     1    12     4     9
 0.0009098649     1    12     4    15
 -0.0029982688     1    12     4    16
 -0.0860488840     1    12     5     1
 0.0079600898     1    12     5     3
 -0.0046736100     1    12     5     7
 0.0020792428     1    12     5    11
 0.0046321117     1    12     5    14
 -0.0092202809     1    12     5    18
 -0.0055290966     1    12     5    19
 0.2083131619     1    12     6     1
 -0.0192703425     1    12     6     3
 0.0113142021     1    12     6     7
 -0.0050335764     1    12     6    11
 -0.0112137402     1    12     6    14
 -0.0055290966     1    12     6    18
 0.0092202809     1    12     6    19
 -0.0020338846     1    12     7     5
 0.0049237702     1    12     7     6
 -0.0858910754     1    12     8     2
 -0.0151221794     1    12     8     4
 -0.0074014777     1    12     8    10
 0.0026331400     1    12     8    17
 0.0513539901     1    12     9     2
 0.0090415011     1    12     9     4
 0.0044253191     1    12     9    10
 -0.0015743457     1    12     9    17
 -0.0020911236     1    12    10     8
 0.0012502759     1    12    10     9
 0.0005525198     1    12    10    15
 -0.0018207129     1    12    10    16
 0.0019115631     1    12    11     5
 -0.0046276456     1    12    11     6
 -0.5641536445     1    12    12     1
 0.0129099712     1    12    12     3
 -0.0077542657     1    12    12     7
 0.0007292559     1    12    12    11
 0.0175252809     1    12    12    14
 0.0003868866     1    12    12    18
 -0.0025870391     1    12    12    19
 0.0025870391     1    12    13    18
 0.0003868866     1    12    13    19
 -0.0018895055     1    12    14     5
 0.0045742473     1    12    14     6
 0.0584314531     1    12    15     2
 0.0040796858     1    12    15     4
 0.0030450272     1    12    15    10
 -0.0006993914     1    12    15    17
 -0.1925485788     1    12    16     2
 -0.0134437474     1    12    16     4
 -0.0100342474     1    12    16    10
 0.0023046976     1    12    16    17
 0.0034732521     1    12    17     8
 -0.0020766459     1    12    17     9
 0.0002337130     1    12    17    15
 -0.0007701519     1    12    17    16
 -0.0068260709     1    12    18     5
 -0.0040933683     1    12    18     6
 -0.0040933683     1    12    19     5
 0.0068260709     1    12    19     6
 -0.0003108506     1    13     2     8
 -0.0005199069     1    13     2     9
 0.0007995767     1    13     2    15
 0.0002426423     1    13     2    16
 -0.0074452274     1    13     3     5
 -0.0030754346     1    13     3     6
 0.0043892289     1    13     4     8
 0.0073411159     1    13     4     9
 -0.0029982688     1    13     4    15
 -0.0009098649     1    13     4    16
 0.2083131619     1    13     5     1
 -0.0192703425     1    13     5     3
 0.0113142021     1    13     5     7
 -0.0050335764     1    13     5    11
 -0.0112137402     1    13     5    14
 0.0055290966     1    13     5    18
 -0.0092202809     1    13     5    19