&FCI NORB= 19,NELEC= 14,MS2=0,
 ORBSYM=1,1,1,1,1,1,1,1,1,1,1,1,1,1,1,1,1,1,1
 ISYM=1,
&END
 0.6050926742     1     1     2     2
 0.0141236834     1     1     2     6
 0.0049962917     1     1     2    10
 -0.0205110061     1     1     2    17
 0.9249992885     1     1     3     3
 -0.1325838098     1     1     3     7
 0.0991264140     1     1     3    11
 0.1087937520     1     1     3    14
 0.7523248838     1     1     4     4
 -0.1857556554     1     1     4    12
 0.1313780125     1     1     4    13
 0.7523248838     1     1     5     5
 -0.1313780125     1     1     5    12
 -0.1857556554     1     1     5    13
 0.0141236834     1     1     6     2
 0.6549525931     1     1     6     6
 0.1406227685     1     1     6    10
 -0.1379998334     1     1     6    17
 -0.1325838098     1     1     7     3
 0.7065223174     1     1     7     7
 -0.1478202060     1     1     7    11
 0.1577387537     1     1     7    14
 0.5742512000     1     1     8     8
 0.1929526222     1     1     8    15
 0.1703695975     1     1     8    16
 0.5742512000     1     1     9     9
 0.1703695975     1     1     9    15
 -0.1929526222     1     1     9    16
 0.0049962917     1     1    10     2
 0.1406227685     1     1    10     6
 0.3740380809     1     1    10    10
 -0.0455821749     1     1    10    17
 0.0991264140     1     1    11     3
 -0.1478202060     1     1    11     7
 0.4564088295     1     1    11    11
 0.0049771422     1     1    11    14
 -0.1857556554     1     1    12     4
 -0.1313780125     1     1    12     5
 0.5554028794     1     1    12    12
 0.1313780125     1     1    13     4
 -0.1857556554     1     1    13     5
 0.5554028794     1     1    13    13
 0.1087937520     1     1    14     3
 0.1577387537     1     1    14     7
 0.0049771422     1     1    14    11
 0.5827664078     1     1    14    14
 0.1929526222     1     1    15     8
 0.1703695975     1     1    15     9
 0.6662452272     1     1    15    15
 0.1703695975     1     1    16     8
 -0.1929526222     1     1    16     9
 0.6662452272     1     1    16    16
 -0.0205110061     1     1    17     2
 -0.1379998334     1     1    17     6
 -0.0455821749     1     1    17    10
 0.6194397830     1     1    17    17
 0.6388630589     1     1    18    18
 0.6388630589     1     1    19    19
 -0.6050926742     1     2     2     1
 -0.0221908609     1     2     2     3
 0.0279995528     1     2     2     7
 -0.0161270462     1     2     2    11
 0.0108861735     1     2     2    14
 -0.0986219852     1     2     3     6
 -0.0588014028     1     2     3    10
 -0.0582517315     1     2     3    17
 0.1714011257     1     2     4     8
 0.0653183996     1     2     4     9
 0.1824263244     1     2     4    15
 0.0685046827     1     2     4    16
 -0.0653183996     1     2     5     8
 0.1714011257     1     2     5     9
 0.0685046827     1     2     5    15
 -0.1824263244     1     2     5    16
 -0.0141236834     1     2     6     1
 -0.0996428183     1     2     6     3
 -0.2258674366     1     2     6     7
 0.0238360915     1     2     6    11
 -0.1518994097     1     2     6    14
 -0.2271746844     1     2     7     6
 -0.0513254691     1     2     7    10
 0.1617191667     1     2     7    17
 0.1705716918     1     2     8     4
 -0.0650023147     1     2     8     5
 -0.0404275731     1     2     8    12
 0.0602339275     1     2     8    13
 0.0650023147     1     2     9     4
 0.1705716918     1     2     9     5
 -0.0602339275     1     2     9    12
 -0.0404275731     1     2     9    13
 -0.0049962917     1     2    10     1
 -0.0591672969     1     2    10     3
 -0.0508461168     1     2    10     7
 0.0666293582     1     2    10    11
 -0.0963475802     1     2    10    14
 0.0246230550     1     2    11     6
 0.0669179514     1     2    11    10
 -0.0548780304     1     2    11    17
 -0.0408471361     1     2    12     8
 -0.0608590437     1     2    12     9
 -0.1720306737     1     2    12    15
 0.0450935060     1     2    12    16
 0.0608590437     1     2    13     8
 -0.0408471361     1     2    13     9
 0.0450935060     1     2    13    15
 0.1720306737     1     2    13    16
 -0.1523855747     1     2    14     6
 -0.0965300928     1     2    14    10
 0.1659889465     1     2    14    17
 0.1811702273     1     2    15     4
 0.0680329935     1     2    15     5
 -0.1709285930     1     2    15    12
 0.0448046233     1     2    15    13
 0.0680329935     1     2    16     4
 -0.1811702273     1     2    16     5
 0.0448046233     1     2    16    12
 0.1709285930     1     2    16    13
 0.0205110061     1     2    17     1
 -0.0567584092     1     2    17     3
 0.1598611189     1     2    17     7
 -0.0537577589     1     2    17    11
 0.1653207792     1     2    17    14
 0.0221908609     1     3     2     2
 0.0010208331     1     3     2     6
 0.0003658941     1     3     2    10
 -0.0014933223     1     3     2    17
 -0.9249992885     1     3     3     1
 0.0304007958     1     3     3     7
 -0.0169333033     1     3     3    11
 0.0232361502     1     3     3    14
 -0.0203876333     1     3     4     4
 0.0172194898     1     3     4    12
 -0.0121786997     1     3     4    13
 -0.0203876333     1     3     5     5
 0.0121786997     1     3     5    12
 0.0172194898     1     3     5    13
 0.0996428183     1     3     6     2
 -0.0128928484     1     3     6     6
 -0.0038572077     1     3     6    10
 0.0145926032     1     3     6    17
 0.1325838098     1     3     7     1
 -0.0272216475     1     3     7     7
 0.0098354994     1     3     7    11
 -0.0225466544     1     3     7    14
 -0.0108909219     1     3     8     8
 -0.0123105717     1     3     8    15
 -0.0108697519     1     3     8    16
 -0.0108909219     1     3     9     9
 -0.0108697519     1     3     9    15
 0.0123105717     1     3     9    16
 0.0591672969     1     3    10     2
 -0.0029389258     1     3    10     6
 -0.0027877844     1     3    10    10
 0.0050116043     1     3    10    17
 -0.0991264140     1     3    11     1
 0.0106997277     1     3    11     7
 -0.0054251104     1     3    11    11
 0.0127883977     1     3    11    14
 0.0106758216     1     3    12     4
 0.0075506085     1     3    12     5
 -0.0117901113     1     3    12    12
 -0.0075506085     1     3    13     4
 0.0106758216     1     3    13     5
 -0.0117901113     1     3    13    13
 -0.1087937520     1     3    14     1
 -0.0083744391     1     3    14     7
 0.0041237072     1     3    14    11
 -0.0063586574     1     3    14    14
 -0.0102471235     1     3    15     8
 -0.0090478081     1     3    15     9
 -0.0214718431     1     3    15    15
 -0.0090478081     1     3    16     8
 0.0102471235     1     3    16     9
 -0.0214718431     1     3    16    16
 0.0567584092     1     3    17     2
 0.0155932298     1     3    17     6
 0.0067377579     1     3    17    10
 -0.0154704053     1     3    17    17
 0.0029085293     1     3    18    18
 0.0029085293     1     3    19    19
 0.0008294339     1     4     2     8
 0.0003160849     1     4     2     9
 0.0012560971     1     4     2    15
 0.0004716892     1     4     2    16
 0.0065436682     1     4     3    12
 -0.0046280912     1     4     3    13
 -0.7523248838     1     4     4     1
 0.0203876333     1     4     4     3
 0.0189765761     1     4     4     7
 -0.0089331065     1     4     4    11
 0.0155425375     1     4     4    14
 0.0114177527     1     4     4    18
 0.0022405813     1     4     4    19
 -0.0022405813     1     4     5    18
 0.0114177527     1     4     5    19
 -0.0048477280     1     4     6     8
 -0.0018473965     1     4     6     9
 0.0016000049     1     4     6    15
 0.0006008334     1     4     6    16
 0.0049928497     1     4     7    12
 -0.0035312554     1     4     7    13
 -0.1705716918     1     4     8     2
 -0.0130061552     1     4     8     6
 -0.0060739422     1     4     8    10
 -0.0064107292     1     4     8    17
 -0.0650023147     1     4     9     2
 -0.0049564507     1     4     9     6
 -0.0023146884     1     4     9    10
 -0.0024430329     1     4     9    17
 -0.0011268801     1     4    10     8
 -0.0004294372     1     4    10     9
 -0.0007756738     1     4    10    15
 -0.0002912808     1     4    10    16
 -0.0040973431     1     4    11    12
 0.0028978972     1     4    11    13
 0.1857556554     1     4    12     1
 -0.0106758216     1     4    12     3
 -0.0055348691     1     4    12     7
 0.0006301220     1     4    12    11
 -0.0146959944     1     4    12    14
 -0.0018495428     1     4    12    18
 -0.0019403652     1     4    12    19
 -0.1313780125     1     4    13     1
 0.0075506085     1     4    13     3
 0.0039146055     1     4    13     7
 -0.0004456616     1     4    13    11
 0.0103939260     1     4    13    14
 0.0019403652     1     4    13    18
 -0.0018495428     1     4    13    19
 -0.0043964030     1     4    14    12
 0.0031094111     1     4    14    13
 -0.1811702273     1     4    15     2
 -0.0136698243     1     4    15     6
 -0.0093732367     1     4    15    10
 0.0022490513     1     4    15    17
 -0.0680329935     1     4    16     2
 -0.0051332886     1     4    16     6
 -0.0035198352     1     4    16    10
 0.0008445631     1     4    16    17
 -0.0022828605     1     4    17     8
 -0.0008699640     1     4    17     9
 0.0042042966     1     4    17    15
 0.0015787963     1     4    17    16
 0.0057504673     1     4    18    12
 -0.0060328458     1     4    18    13
 0.0060328458     1     4    19    12
 0.0057504673     1     4    19    13
 -0.0003160849     1     5     2     8
 0.0008294339     1     5     2     9
 0.0004716892     1     5     2    15
 -0.0012560971     1     5     2    16
 0.0046280912     1     5     3    12
 0.0065436682     1     5     3    13
 -0.0022405813     1     5     4    18
 0.0114177527     1     5     4    19
 -0.7523248838     1     5     5     1
 0.0203876333     1     5     5     3
 0.0189765761     1     5     5     7
 -0.0089331065     1     5     5    11
 0.0155425375     1     5     5    14
 -0.0114177527     1     5     5    18
 -0.0022405813     1     5     5    19
 0.0018473965     1     5     6     8
 -0.0048477280     1     5     6     9
 0.0006008334     1     5     6    15
 -0.0016000049     1     5     6    16
 0.0035312554     1     5     7    12
 0.0049928497     1     5     7    13
 0.0650023147     1     5     8     2
 0.0049564507     1     5     8     6
 0.0023146884     1     5     8    10
 0.0024430329     1     5     8    17
 -0.1705716918     1     5     9     2
 -0.0130061552     1     5     9     6
 -0.0060739422     1     5     9    10
 -0.0064107292     1     5     9    17
 0.0004294372     1     5    10     8
 -0.0011268801     1     5    10     9
 -0.0002912808     1     5    10    15
 0.0007756738     1     5    10    16
 -0.0028978972     1     5    11    12
 -0.0040973431     1     5    11    13
 0.1313780125     1     5    12     1
 -0.0075506085     1     5    12     3
 -0.0039146055     1     5    12     7
 0.0004456616     1     5    12    11
 -0.0103939260     1     5    12    14
 0.0019403652     1     5    12    18
 -0.0018495428     1     5    12    19
 0.1857556554     1     5    13     1
 -0.0106758216     1     5    13     3
 -0.0055348691     1     5    13     7
 0.0006301220     1     5    13    11
 -0.0146959944     1     5    13    14
 0.0018495428     1     5    13    18
 0.0019403652     1     5    13    19
 -0.0031094111     1     5    14    12
 -0.0043964030     1     5    14    13
 -0.0680329935     1     5    15     2
 -0.0051332886     1     5    15     6
 -0.0035198352     1     5    15    10
 0.0008445631     1     5    15    17
 0.1811702273     1     5    16     2
 0.0136698243     1     5    16     6
 0.0093732367     1     5    16    10
 -0.0022490513     1     5    16    17
 0.0008699640     1     5    17     8
 -0.0022828605     1     5    17     9
 0.0015787963     1     5    17    15
 -0.0042042966     1     5    17    16
 -0.0060328458     1     5    18    12
 -0.0057504673     1     5    18    13
 0.0057504673     1     5    19    12
 -0.0060328458     1     5    19    13
 -0.0141236834     1     6     2     1
 -0.0010208331     1     6     2     3
 0.0013072478     1     6     2     7
 -0.0007869635     1     6     2    11
 0.0004861650     1     6     2    14
 0.0986219852     1     6     3     2
 -0.0009182819     1     6     3    10
 -0.0010006266     1     6     3    17
 0.0081584272     1     6     4     8
 0.0031090542     1     6     4     9
 0.0152698292     1     6     4    15
 0.0057341220     1     6     4    16
 -0.0031090542     1     6     5     8
 0.0081584272     1     6     5     9
 0.0057341220     1     6     5    15
 -0.0152698292     1     6     5    16
 -0.6549525931     1     6     6     1
 0.0128928484     1     6     6     3
 -0.0008228706     1     6     6     7
 0.0062933099     1     6     6    11
 0.0010236580     1     6     6    14
 0.2271746844     1     6     7     2
 -0.0004324135     1     6     7    10
 0.0161788719     1     6     7    17
 0.0130061552     1     6     8     4
 -0.0049564507     1     6     8     5
 -0.0087631073     1     6     8    12
 0.0130563457     1     6     8    13
 0.0049564507     1     6     9     4
 0.0130061552     1     6     9     5
 -0.0130563457     1     6     9    12
 -0.0087631073     1     6     9    13
 -0.1406227685     1     6    10     1
 0.0029389258     1     6    10     3
 0.0002261171     1     6    10     7
 -0.0017359315     1     6    10    11
 0.0028057509     1     6    10    14
 -0.0246230550     1     6    11     2
 -0.0034291409     1     6    11    10
 -0.0027496065     1     6    11    17
 -0.0041204650     1     6    12     8
 -0.0061391712     1     6    12     9
 -0.0085507515     1     6    12    15
 0.0022413641     1     6    12    16
 0.0061391712     1     6    13     8
 -0.0041204650     1     6    13     9
 0.0022413641     1     6    13    15
 0.0085507515     1     6    13    16
 0.1523855747     1     6    14     2
 0.0019470867     1     6    14    10
 0.0056044521     1     6    14    17
 0.0136698243     1     6    15     4
 0.0051332886     1     6    15     5
 -0.0127795544     1     6    15    12
 0.0033498382     1     6    15    13
 0.0051332886     1     6    16     4
 -0.0136698243     1     6    16     5
 0.0033498382     1     6    16    12
 0.0127795544     1     6    16    13
 0.1379998334     1     6    17     1
 -0.0155932298     1     6    17     3
 0.0080920694     1     6    17     7
 -0.0078543976     1     6    17    11
 -0.0019643183     1     6    17    14
 -0.0279995528     1     7     2     2
 -0.0013072478     1     7     2     6
 -0.0004793523     1     7     2    10
 0.0018580478     1     7     2    17
 0.1325838098     1     7     3     1
 -0.0304007958     1     7     3     3
 -0.0008642283     1     7     3    11
 -0.0141722153     1     7     3    14
 -0.0189765761     1     7     4     4
 0.0105277188     1     7     4    12
 -0.0074458609     1     7     4    13
 -0.0189765761     1     7     5     5
 0.0074458609     1     7     5    12
 0.0105277188     1     7     5    13
 0.2258674366     1     7     6     2
 0.0008228706     1     7     6     6
 -0.0006585306     1     7     6    10
 0.0080868025     1     7     6    17
 -0.7065223174     1     7     7     1
 0.0272216475     1     7     7     3
 0.0084929387     1     7     7    11
 0.0126345498     1     7     7    14
 -0.0074928031     1     7     8     8
 -0.0086409243     1     7     8    15
 -0.0076295972     1     7     8    16
 -0.0074928031     1     7     9     9
 -0.0076295972     1     7     9    15
 0.0086409243     1     7     9    16
 0.0508461168     1     7    10     2
 -0.0002261171     1     7    10     6
 0.0020048220     1     7    10    10
 -0.0003090685     1     7    10    17
 0.1478202060     1     7    11     1
 -0.0106997277     1     7    11     3
 -0.0020466118     1     7    11    11
 -0.0108250661     1     7    11    14
 0.0055348691     1     7    12     4
 0.0039146055     1     7    12     5
 -0.0069940731     1     7    12    12
 -0.0039146055     1     7    13     4
 0.0055348691     1     7    13     5
 -0.0069940731     1     7    13    13
 -0.1577387537     1     7    14     1
 0.0083744391     1     7    14     3
 0.0010534272     1     7    14    11
 0.0013095196     1     7    14    14
 -0.0057211675     1     7    15     8
 -0.0050515666     1     7    15     9
 -0.0115101766     1     7    15    15
 -0.0050515666     1     7    16     8
 0.0057211675     1     7    16     9
 -0.0115101766     1     7    16    16
 -0.1598611189     1     7    17     2
 -0.0080920694     1     7    17     6
 -0.0051138085     1     7    17    10
 -0.0052974219     1     7    17    17
 -0.0097310810     1     7    18    18
 -0.0097310810     1     7    19    19
 -0.0008294339     1     8     2     4
 0.0003160849     1     8     2     5
 0.0004195630     1     8     2    12
 -0.0006251162     1     8     2    13
 -0.0020634482     1     8     3    15
 -0.0018219438     1     8     3    16
 -0.1714011257     1     8     4     2
 -0.0081584272     1     8     4     6
 -0.0049470621     1     8     4    10
 -0.0041278687     1     8     4    17
 0.0653183996     1     8     5     2
 0.0031090542     1     8     5     6
 0.0018852512     1     8     5    10
 0.0015730689     1     8     5    17
 0.0048477280     1     8     6     4
 -0.0018473965     1     8     6     5
 -0.0046426423     1     8     6    12
 0.0069171745     1     8     6    13
 -0.0029197568     1     8     7    15
 -0.0025780306     1     8     7    16
 -0.5742512000     1     8     8     1
 0.0108909219     1     8     8     3
 0.0074928031     1     8     8     7
 -0.0007787070     1     8     8    11
 0.0073934430     1     8     8    14
 0.0032908861     1     8     8    18
 -0.0019477550     1     8     8    19
 0.0019477550     1     8     9    18
 0.0032908861     1     8     9    19
 0.0011268801     1     8    10     4
 -0.0004294372     1     8    10     5
 -0.0012404708     1     8    10    12
 0.0018482046     1     8    10    13
 0.0000536428     1     8    11    15
 0.0000473645     1     8    11    16
 0.0408471361     1     8    12     2
 0.0041204650     1     8    12     6
 0.0026863338     1     8    12    10
 -0.0019359941     1     8    12    17
 -0.0608590437     1     8    13     2
 -0.0061391712     1     8    13     6
 -0.0040024275     1     8    13    10
 0.0028844802     1     8    13    17
 0.0008570269     1     8    14    15
 0.0007567212     1     8    14    16
 -0.1929526222     1     8    15     1
 0.0102471235     1     8    15     3
 0.0057211675     1     8    15     7
 -0.0010048241     1     8    15    11
 0.0096330773     1     8    15    14
 0.0033068669     1     8    15    18
 0.0006322246     1     8    15    19
 -0.1703695975     1     8    16     1
 0.0090478081     1     8    16     3
 0.0050515666     1     8    16     7
 -0.0008872203     1     8    16    11
 0.0085056294     1     8    16    14
 0.0006322246     1     8    16    18
 -0.0033068669     1     8    16    19
 0.0022828605     1     8    17     4
 -0.0008699640     1     8    17     5
 -0.0022131975     1     8    17    12
 0.0032974915     1     8    17    13
 -0.0031595455     1     8    18    15
 -0.0006040590     1     8    18    16
 -0.0006040590     1     8    19    15
 0.0031595455     1     8    19    16
 -0.0003160849     1     9     2     4
 -0.0008294339     1     9     2     5
 0.0006251162     1     9     2    12
 0.0004195630     1     9     2    13
 -0.0018219438     1     9     3    15
 0.0020634482     1     9     3    16
 -0.0653183996     1     9     4     2
 -0.0031090542     1     9     4     6
 -0.0018852512     1     9     4    10
 -0.0015730689     1     9     4    17
 -0.1714011257     1     9     5     2
 -0.0081584272     1     9     5     6
 -0.0049470621     1     9     5    10
 -0.0041278687     1     9     5    17
 0.0018473965     1     9     6     4
 0.0048477280     1     9     6     5
 -0.0069171745     1     9     6    12
 -0.0046426423     1     9     6    13
 -0.0025780306     1     9     7    15
 0.0029197568     1     9     7    16
 0.0019477550     1     9     8    18
 0.0032908861     1     9     8    19
 -0.5742512000     1     9     9     1
 0.0108909219     1     9     9     3
 0.0074928031     1     9     9     7
 -0.0007787070     1     9     9    11
 0.0073934430     1     9     9    14
 -0.0032908861     1     9     9    18
 0.0019477550     1     9     9    19
 0.0004294372     1     9    10     4
 0.0011268801     1     9    10     5
 -0.0018482046     1     9    10    12
 -0.0012404708     1     9    10    13
 0.0000473645     1     9    11    15
 -0.0000536428     1     9    11    16
 0.0608590437     1     9    12     2
 0.0061391712     1     9    12     6
 0.0040024275     1     9    12    10
 -0.0028844802     1     9    12    17
 0.0408471361     1     9    13     2
 0.0041204650     1     9    13     6
 0.0026863338     1     9    13    10
 -0.0019359941     1     9    13    17
 0.0007567212     1     9    14    15
 -0.0008570269     1     9    14    16
 -0.1703695975     1     9    15     1
 0.0090478081     1     9    15     3
 0.0050515666     1     9    15     7
 -0.0008872203     1     9    15    11
 0.0085056294     1     9    15    14
 -0.0006322246     1     9    15    18
 0.0033068669     1     9    15    19
 0.1929526222     1     9    16     1
 -0.0102471235     1     9    16     3
 -0.0057211675     1     9    16     7
 0.0010048241     1     9    16    11
 -0.0096330773     1     9    16    14
 0.0033068669     1     9    16    18
 0.0006322246     1     9    16    19
 0.0008699640     1     9    17     4
 0.0022828605     1     9    17     5
 -0.0032974915     1     9    17    12
 -0.0022131975     1     9    17    13
 0.0006040590     1     9    18    15
 -0.0031595455     1     9    18    16
 -0.0031595455     1     9    19    15
 -0.0006040590     1     9    19    16
 -0.0049962917     1    10     2     1
 -0.0003658941     1    10     2     3
 0.0004793523     1    10     2     7
 -0.0002885932     1    10     2    11
 0.0001825126     1    10     2    14
 0.0588014028     1    10     3     2
 0.0009182819     1    10     3     6
 -0.0017261536     1    10     3    17
 0.0049470621     1    10     4     8
 0.0018852512     1    10     4     9
 0.0085975629     1    10     4    15
 0.0032285544     1    10     4    16
 -0.0018852512     1    10     5     8
 0.0049470621     1    10     5     9
 0.0032285544     1    10     5    15
 -0.0085975629     1    10     5    16
 -0.1406227685     1    10     6     1
 0.0038572077     1    10     6     3
 0.0006585306     1    10     6     7
 0.0016932094     1    10     6    11
 0.0008586642     1    10     6    14
 0.0513254691     1    10     7     2
 0.0004324135     1    10     7     6
 0.0048047400     1    10     7    17
 0.0060739422     1    10     8     4
 -0.0023146884     1    10     8     5
 -0.0039268046     1    10     8    12
 0.0058506321     1    10     8    13
 0.0023146884     1    10     9     4
 0.0060739422     1    10     9     5
 -0.0058506321     1    10     9    12
 -0.0039268046     1    10     9    13
 -0.3740380809     1    10    10     1
 0.0027877844     1    10    10     3
 -0.0020048220     1    10    10     7
 0.0006046746     1    10    10    11
 -0.0001268733     1    10    10    14
 -0.0669179514     1    10    11     2
 0.0034291409     1    10    11     6
 -0.0067889337     1    10    11    17
 -0.0026863338     1    10    12     8
 -0.0040024275     1    10    12     9
 -0.0064354224     1    10    12    15
 0.0016868839     1    10    12    16
 0.0040024275     1    10    13     8
 -0.0026863338     1    10    13     9
 0.0016868839     1    10    13    15
 0.0064354224     1    10    13    16
 0.0965300928     1    10    14     2
 -0.0019470867     1    10    14     6
 0.0053729433     1    10    14    17
 0.0093732367     1    10    15     4
 0.0035198352     1    10    15     5
 -0.0088019440     1    10    15    12
 0.0023072079     1    10    15    13
 0.0035198352     1    10    16     4
 -0.0093732367     1    10    16     5
 0.0023072079     1    10    16    12
 0.0088019440     1    10    16    13
 0.0455821749     1    10    17     1
 -0.0067377579     1    10    17     3
 0.0051138085     1    10    17     7
 -0.0040256235     1    10    17    11
 0.0006805473     1    10    17    14
 0.0161270462     1    11     2     2
 0.0007869635     1    11     2     6
 0.0002885932     1    11     2    10
 -0.0011202715     1    11     2    17
 -0.0991264140     1    11     3     1
 0.0169333033     1    11     3     3
 0.0008642283     1    11     3     7
 0.0086646905     1    11     3    14
 0.0089331065     1    11     4     4
 -0.0047274651     1    11     4    12
 0.0033435588     1    11     4    13
 0.0089331065     1    11     5     5
 -0.0033435588     1    11     5    12
 -0.0047274651     1    11     5    13
 -0.0238360915     1    11     6     2
 -0.0062933099     1    11     6     6
 -0.0016932094     1    11     6    10
 0.0051047911     1    11     6    17
 0.1478202060     1    11     7     1
 -0.0098354994     1    11     7     3
 -0.0084929387     1    11     7     7
 -0.0118784933     1    11     7    14
 0.0007787070     1    11     8     8
 0.0010584669     1    11     8    15
 0.0009345848     1    11     8    16
 0.0007787070     1    11     9     9
 0.0009345848     1    11     9    15
 -0.0010584669     1    11     9    16
 -0.0666293582     1    11    10     2
 0.0017359315     1    11    10     6
 -0.0006046746     1    11    10    10
 -0.0027633102     1    11    10    17
 -0.4564088295     1    11    11     1
 0.0054251104     1    11    11     3
 0.0020466118     1    11    11     7
 0.0071547096     1    11    11    14
 -0.0006301220     1    11    12     4
 -0.0004456616     1    11    12     5
 0.0010047283     1    11    12    12
 0.0004456616     1    11    13     4
 -0.0006301220     1    11    13     5
 0.0010047283     1    11    13    13
 -0.0049771422     1    11    14     1
 -0.0041237072     1    11    14     3
 -0.0010534272     1    11    14     7
 -0.0018107255     1    11    14    14
 0.0010048241     1    11    15     8
 0.0008872203     1    11    15     9
 0.0018861093     1    11    15    15
 0.0008872203     1    11    16     8
 -0.0010048241     1    11    16     9
 0.0018861093     1    11    16    16
 0.0537577589     1    11    17     2
 0.0078543976     1    11    17     6
 0.0040256235     1    11    17    10
 -0.0030037607     1    11    17    17
 0.0050423067     1    11    18    18
 0.0050423067     1    11    19    19
 -0.0004195630     1    12     2     8
 -0.0006251162     1    12     2     9
 -0.0011020807     1    12     2    15
 0.0002888827     1    12     2    16
 -0.0065436682     1    12     3     4
 -0.0046280912     1    12     3     5
 0.1857556554     1    12     4     1
 -0.0172194898     1    12     4     3
 -0.0105277188     1    12     4     7
 0.0047274651     1    12     4    11
 -0.0102995914     1    12     4    14
 -0.0076000101     1    12     4    18
 -0.0079732110     1    12     4    19
 0.1313780125     1    12     5     1
 -0.0121786997     1    12     5     3
 -0.0074458609     1    12     5     7
 0.0033435588     1    12     5    11
 -0.0072845149     1    12     5    14
 0.0079732110     1    12     5    18
 -0.0076000101     1    12     5    19
 0.0046426423     1    12     6     8
 0.0069171745     1    12     6     9
 0.0042288029     1    12     6    15
 -0.0011084741     1    12     6    16
 -0.0049928497     1    12     7     4
 -0.0035312554     1    12     7     5
 0.0404275731     1    12     8     2
 0.0087631073     1    12     8     6
 0.0039268046     1    12     8    10
 0.0002772034     1    12     8    17
 0.0602339275     1    12     9     2
 0.0130563457     1    12     9     6
 0.0058506321     1    12     9    10
 0.0004130113     1    12     9    17
 0.0012404708     1    12    10     8
 0.0018482046     1    12    10     9
 0.0023665216     1    12    10    15
 -0.0006203240     1    12    10    16
 0.0040973431     1    12    11     4
 0.0028978972     1    12    11     5
 -0.5554028794     1    12    12     1
 0.0117901113     1    12    12     3
 0.0069940731     1    12    12     7
 -0.0010047283     1    12    12    11
 0.0166132445     1    12    12    14
 0.0003192688     1    12    12    18
 0.0021734032     1    12    12    19
 -0.0021734032     1    12    13    18
 0.0003192688     1    12    13    19
 0.0043964030     1    12    14     4
 0.0031094111     1    12    14     5
 0.1709285930     1    12    15     2
 0.0127795544     1    12    15     6
 0.0088019440     1    12    15    10
 -0.0016722955     1    12    15    17
 -0.0448046233     1    12    16     2
 -0.0033498382     1    12    16     6
 -0.0023072079     1    12    16    10
 0.0004383502     1    12    16    17
 0.0022131975     1    12    17     8
 0.0032974915     1    12    17     9
 -0.0009268020     1    12    17    15
 0.0002429378     1    12    17    16
 -0.0057504673     1    12    18     4
 0.0060328458     1    12    18     5
 -0.0060328458     1    12    19     4
 -0.0057504673     1    12    19     5
 0.0006251162     1    13     2     8
 -0.0004195630     1    13     2     9
 0.0002888827     1    13     2    15
 0.0011020807     1    13     2    16
 0.0046280912     1    13     3     4
 -0.0065436682     1    13     3     5
 -0.1313780125     1    13     4     1
 0.0121786997     1    13     4     3
 0.0074458609     1    13     4     7
 -0.0033435588     1    13     4    11
 0.0072845149     1    13     4    14
 0.0079732110     1    13     4    18
 -0.0076000101     1    13     4    19
 0.1857556554     1    13     5     1
 -0.0172194898     1    13     5     3
 -0.0105277188     1    13     5     7
 0.0047274651     1    13     5    11
 -0.0102995914     1    13     5    14