&FCI NORB= 13,NELEC= 14,MS2=0,
 ORBSYM=1,1,1,1,1,1,1,1,1,1,1,1,1
 ISYM=1,
&END
 0.3720376756     1     1     2     2
 -0.0032650739     1     1     2     4
 0.0075652690     1     1     2    10
 -0.0103561471     1     1     2    11
 0.6791791764     1     1     3     3
 -0.0000000010     1     1     3     4
 -0.0591879167     1     1     3     5
 -0.0000000007     1     1     3    10
 0.0000000002     1     1     3    11
 -0.0032650739     1     1     4     2
 -0.0000000010     1     1     4     3
 0.6187625166     1     1     4     4
 -0.0000000009     1     1     4     5
 0.0756079191     1     1     4    10
 0.1117628511     1     1     4    11
 -0.0591879167     1     1     5     3
 -0.0000000009     1     1     5     4
 0.6418737201     1     1     5     5
 0.0000000008     1     1     5    10
 -0.0000000010     1     1     5    11
 0.6029871055     1     1     6     6
 -0.0000000006     1     1     6     8
 -0.0000000010     1     1     6     9
 0.1515651940     1     1     6    12
 0.1501394758     1     1     6    13
 0.6029871055     1     1     7     7
 0.0000000010     1     1     7     8
 -0.0000000006     1     1     7     9
 -0.1501394758     1     1     7    12
 0.1515651940     1     1     7    13
 -0.0000000006     1     1     8     6
 0.0000000010     1     1     8     7
 0.6032919930     1     1     8     8
 -0.0000000008     1     1     8    12
 0.0000000002     1     1     8    13
 -0.0000000010     1     1     9     6
 -0.0000000006     1     1     9     7
 0.6032919930     1     1     9     9
 -0.0000000002     1     1     9    12
 -0.0000000008     1     1     9    13
 0.0075652690     1     1    10     2
 -0.0000000007     1     1    10     3
 0.0756079191     1     1    10     4
 0.0000000008     1     1    10     5
 0.6047812328     1     1    10    10
 -0.2190907166     1     1    10    11
 -0.0103561471     1     1    11     2
 0.0000000002     1     1    11     3
 0.1117628511     1     1    11     4
 -0.0000000010     1     1    11     5
 -0.2190907166     1     1    11    10
 0.5810235948     1     1    11    11
 0.1515651940     1     1    12     6
 -0.1501394758     1     1    12     7
 -0.0000000008     1     1    12     8
 -0.0000000002     1     1    12     9
 0.5840289744     1     1    12    12
 0.1501394758     1     1    13     6
 0.1515651940     1     1    13     7
 0.0000000002     1     1    13     8
 -0.0000000008     1     1    13     9
 0.5840289744     1     1    13    13
 -0.3720376756     1     2     2     1
 -0.0035256206     1     2     2     3
 0.0096401315     1     2     2     5
 -0.0000000001     1     2     2    11
 0.2216944386     1     2     3     4
 0.1631303390     1     2     3    10
 -0.0400243965     1     2     3    11
 0.0032650739     1     2     4     1
 0.2217586795     1     2     4     3
 0.2109961342     1     2     4     5
 0.2111688299     1     2     5     4
 -0.1855278893     1     2     5    10
 0.2213873694     1     2     5    11
 0.1343460212     1     2     6     8
 0.2236541905     1     2     6     9
 -0.2236541905     1     2     7     8
 0.1343460212     1     2     7     9
 0.1342346143     1     2     8     6
 -0.2234687245     1     2     8     7
 0.1846258602     1     2     8    12
 -0.0469853541     1     2     8    13
 0.2234687245     1     2     9     6
 0.1342346143     1     2     9     7
 0.0469853541     1     2     9    12
 0.1846258602     1     2     9    13
 -0.0075652690     1     2    10     1
 0.1629830093     1     2    10     3
 -0.1851375177     1     2    10     5
 0.0103561471     1     2    11     1
 -0.0398220613     1     2    11     3
 0.2208499337     1     2    11     5
 0.1848692659     1     2    12     8
 0.0470472983     1     2    12     9
 -0.0470472983     1     2    13     8
 0.1848692659     1     2    13     9
 0.0035256206     1     3     2     2
 -0.0000642409     1     3     2     4
 0.0001473297     1     3     2    10
 -0.0002023352     1     3     2    11
 -0.6791791764     1     3     3     1
 0.0128616017     1     3     3     5
 0.0000000010     1     3     4     1
 -0.2217586795     1     3     4     2
 -0.0048076444     1     3     4     4
 0.0072540340     1     3     4    10
 -0.0100534224     1     3     4    11
 0.0591879167     1     3     5     1
 -0.0223048456     1     3     5     5
 -0.0162173844     1     3     6     6
 -0.0160360755     1     3     6    12
 -0.0158852300     1     3     6    13
 -0.0162173844     1     3     7     7
 0.0158852300     1     3     7    12
 -0.0160360755     1     3     7    13
 -0.0165422920     1     3     8     8
 -0.0165422920     1     3     9     9
 0.0000000007     1     3    10     1
 -0.1629830093     1     3    10     2
 0.0094677814     1     3    10     4
 -0.0081651325     1     3    10    10
 0.0153117230     1     3    10    11
 -0.0000000002     1     3    11     1
 0.0398220613     1     3    11     2
 -0.0107820380     1     3    11     4
 0.0100617750     1     3    11    10
 -0.0206660435     1     3    11    11
 -0.0097398172     1     3    12     6
 0.0096481983     1     3    12     7
 -0.0178235489     1     3    12    12
 -0.0096481983     1     3    13     6
 -0.0097398172     1     3    13     7
 -0.0178235489     1     3    13    13
 0.0032650739     1     4     2     1
 0.0000642409     1     4     2     3
 -0.0001726957     1     4     2     5
 0.0000000010     1     4     3     1
 -0.2216944386     1     4     3     2
 -0.0022137474     1     4     3    10
 0.0007286156     1     4     3    11
 -0.6187625166     1     4     4     1
 0.0048076444     1     4     4     3
 -0.0029363126     1     4     4     5
 0.0000000009     1     4     5     1
 -0.2111688299     1     4     5     2
 0.0185718252     1     4     5    10
 -0.0231509587     1     4     5    11
 -0.0080644668     1     4     6     8
 -0.0134254203     1     4     6     9
 0.0134254203     1     4     7     8
 -0.0080644668     1     4     7     9
 -0.0089127823     1     4     8     6
 0.0148376639     1     4     8     7
 -0.0228759104     1     4     8    12
 0.0058216804     1     4     8    13
 -0.0148376639     1     4     9     6
 -0.0089127823     1     4     9     7
 -0.0058216804     1     4     9    12
 -0.0228759104     1     4     9    13
 -0.0756079191     1     4    10     1
 -0.0094677814     1     4    10     3
 0.0140692022     1     4    10     5
 -0.1117628511     1     4    11     1
 0.0107820380     1     4    11     3
 -0.0147110043     1     4    11     5
 -0.0147790664     1     4    12     8
 -0.0037611181     1     4    12     9
 0.0037611181     1     4    13     8
 -0.0147790664     1     4    13     9
 -0.0096401315     1     5     2     2
 0.0001726957     1     5     2     4
 -0.0003903716     1     5     2    10
 0.0005374357     1     5     2    11
 0.0591879167     1     5     3     1
 -0.0128616017     1     5     3     3
 0.0000000009     1     5     4     1
 -0.2109961342     1     5     4     2
 0.0029363126     1     5     4     4
 0.0045026230     1     5     4    10
 -0.0084399544     1     5     4    11
 -0.6418737201     1     5     5     1
 0.0223048456     1     5     5     3
 -0.0099782710     1     5     6     6
 -0.0052622327     1     5     6    12
 -0.0052127328     1     5     6    13
 -0.0099782710     1     5     7     7
 0.0052127328     1     5     7    12
 -0.0052622327     1     5     7    13
 -0.0085068487     1     5     8     8
 -0.0085068487     1     5     9     9
 -0.0000000008     1     5    10     1
 0.1851375177     1     5    10     2
 -0.0140692022     1     5    10     4
 -0.0159228940     1     5    10    10
 0.0088802375     1     5    10    11
 0.0000000010     1     5    11     1
 -0.2208499337     1     5    11     2
 0.0147110043     1     5    11     4
 0.0168215877     1     5    11    10
 -0.0046667996     1     5    11    11
 -0.0039873833     1     5    12     6
 0.0039498755     1     5    12     7
 -0.0088481744     1     5    12    12
 -0.0039498755     1     5    13     6
 -0.0039873833     1     5    13     7
 -0.0088481744     1     5    13    13
 0.0001114069     1     6     2     8
 0.0001854660     1     6     2     9
 -0.0062962583     1     6     3    12
 -0.0062370317     1     6     3    13
 0.0008483155     1     6     4     8
 0.0014122436     1     6     4     9
 -0.0012748494     1     6     5    12
 -0.0012628573     1     6     5    13
 -0.6029871055     1     6     6     1
 0.0162173844     1     6     6     3
 0.0099782710     1     6     6     5
 0.0000000006     1     6     8     1
 -0.1342346143     1     6     8     2
 0.0089127823     1     6     8     4
 0.0063307067     1     6     8    10
 -0.0012253976     1     6     8    11
 0.0000000010     1     6     9     1
 -0.2234687245     1     6     9     2
 0.0148376639     1     6     9     4
 0.0105391217     1     6     9    10
 -0.0020399959     1     6     9    11
 0.0000239023     1     6    10     8
 0.0000397917     1     6    10     9
 0.0000603233     1     6    11     8
 0.0001004238     1     6    11     9
 -0.1515651940     1     6    12     1
 0.0097398172     1     6    12     3
 0.0039873833     1     6    12     5
 -0.1501394758     1     6    13     1
 0.0096481983     1     6    13     3
 0.0039498755     1     6    13     5
 -0.0001854660     1     7     2     8
 0.0001114069     1     7     2     9
 0.0062370317     1     7     3    12
 -0.0062962583     1     7     3    13
 -0.0014122436     1     7     4     8
 0.0008483155     1     7     4     9
 0.0012628573     1     7     5    12
 -0.0012748494     1     7     5    13
 -0.6029871055     1     7     7     1
 0.0162173844     1     7     7     3
 0.0099782710     1     7     7     5
 -0.0000000010     1     7     8     1
 0.2234687245     1     7     8     2
 -0.0148376639     1     7     8     4
 -0.0105391217     1     7     8    10
 0.0020399959     1     7     8    11
 0.0000000006     1     7     9     1
 -0.1342346143     1     7     9     2
 0.0089127823     1     7     9     4
 0.0063307067     1     7     9    10
 -0.0012253976     1     7     9    11
 -0.0000397917     1     7    10     8
 0.0000239023     1     7    10     9
 -0.0001004238     1     7    11     8
 0.0000603233     1     7    11     9
 0.1501394758     1     7    12     1
 -0.0096481983     1     7    12     3
 -0.0039498755     1     7    12     5
 -0.1515651940     1     7    13     1
 0.0097398172     1     7    13     3
 0.0039873833     1     7    13     5
 -0.0001114069     1     8     2     6
 0.0001854660     1     8     2     7
 -0.0002434057     1     8     2    12
 0.0000619442     1     8     2    13
 -0.0008483155     1     8     4     6
 0.0014122436     1     8     4     7
 -0.0080968440     1     8     4    12
 0.0020605623     1     8     4    13
 0.0000000006     1     8     6     1
 -0.1343460212     1     8     6     2
 0.0080644668     1     8     6     4
 0.0063068044     1     8     6    10
 -0.0012857209     1     8     6    11
 -0.0000000010     1     8     7     1
 0.2236541905     1     8     7     2
 -0.0134254203     1     8     7     4
 -0.0104993300     1     8     7    10
 0.0021404197     1     8     7    11
 -0.6032919930     1     8     8     1
 0.0165422920     1     8     8     3
 0.0085068487     1     8     8     5
 -0.0000239023     1     8    10     6
 0.0000397917     1     8    10     7
 -0.0027784423     1     8    10    12
 0.0007070846     1     8    10    13
 -0.0000603233     1     8    11     6
 0.0001004238     1     8    11     7
 0.0008943143     1     8    11    12
 -0.0002275937     1     8    11    13
 0.0000000008     1     8    12     1
 -0.1848692659     1     8    12     2
 0.0147790664     1     8    12     4
 0.0098567294     1     8    12    10
 0.0020005599     1     8    12    11
 -0.0000000002     1     8    13     1
 0.0470472983     1     8    13     2
 -0.0037611181     1     8    13     4
 -0.0025084347     1     8    13    10
 -0.0005091217     1     8    13    11
 -0.0001854660     1     9     2     6
 -0.0001114069     1     9     2     7
 -0.0000619442     1     9     2    12
 -0.0002434057     1     9     2    13
 -0.0014122436     1     9     4     6
 -0.0008483155     1     9     4     7
 -0.0020605623     1     9     4    12
 -0.0080968440     1     9     4    13
 0.0000000010     1     9     6     1
 -0.2236541905     1     9     6     2
 0.0134254203     1     9     6     4
 0.0104993300     1     9     6    10
 -0.0021404197     1     9     6    11
 0.0000000006     1     9     7     1
 -0.1343460212     1     9     7     2
 0.0080644668     1     9     7     4
 0.0063068044     1     9     7    10
 -0.0012857209     1     9     7    11
 -0.6032919930     1     9     9     1
 0.0165422920     1     9     9     3
 0.0085068487     1     9     9     5
 -0.0000397917     1     9    10     6
 -0.0000239023     1     9    10     7
 -0.0007070846     1     9    10    12
 -0.0027784423     1     9    10    13
 -0.0001004238     1     9    11     6
 -0.0000603233     1     9    11     7
 0.0002275937     1     9    11    12
 0.0008943143     1     9    11    13
 0.0000000002     1     9    12     1
 -0.0470472983     1     9    12     2
 0.0037611181     1     9    12     4
 0.0025084347     1     9    12    10
 0.0005091217     1     9    12    11
 0.0000000008     1     9    13     1
 -0.1848692659     1     9    13     2
 0.0147790664     1     9    13     4
 0.0098567294     1     9    13    10
 0.0020005599     1     9    13    11
 -0.0075652690     1    10     2     1
 -0.0001473297     1    10     2     3
 0.0003903716     1    10     2     5
 0.0000000007     1    10     3     1
 -0.1631303390     1    10     3     2
 0.0022137474     1    10     3     4
 0.0052499480     1    10     3    11
 -0.0756079191     1    10     4     1
 -0.0072540340     1    10     4     3
 -0.0045026230     1    10     4     5
 -0.0000000008     1    10     5     1
 0.1855278893     1    10     5     2
 -0.0185718252     1    10     5     4
 -0.0079413502     1    10     5    11
 -0.0063068044     1    10     6     8
 -0.0104993300     1    10     6     9
 0.0104993300     1    10     7     8
 -0.0063068044     1    10     7     9
 -0.0063307067     1    10     8     6
 0.0105391217     1    10     8     7
 -0.0126351717     1    10     8    12
 0.0032155193     1    10     8    13
 -0.0105391217     1    10     9     6
 -0.0063307067     1    10     9     7
 -0.0032155193     1    10     9    12
 -0.0126351717     1    10     9    13
 -0.6047812328     1    10    10     1
 0.0081651325     1    10    10     3
 0.0159228940     1    10    10     5
 0.2190907166     1    10    11     1
 -0.0100617750     1    10    11     3
 -0.0168215877     1    10    11     5
 -0.0098567294     1    10    12     8
 -0.0025084347     1    10    12     9
 0.0025084347     1    10    13     8
 -0.0098567294     1    10    13     9
 0.0103561471     1    11     2     1
 0.0000000001     1    11     2     2
 0.0002023352     1    11     2     3
 -0.0005374357     1    11     2     5
 -0.0000000002     1    11     3     1
 0.0400243965     1    11     3     2
 -0.0007286156     1    11     3     4
 -0.0052499480     1    11     3    10
 -0.1117628511     1    11     4     1
 0.0100534224     1    11     4     3
 0.0084399544     1    11     4     5
 0.0000000010     1    11     5     1
 -0.2213873694     1    11     5     2
 0.0231509587     1    11     5     4
 0.0079413502     1    11     5    10
 0.0012857209     1    11     6     8
 0.0021404197     1    11     6     9
 -0.0021404197     1    11     7     8
 0.0012857209     1    11     7     9
 0.0012253976     1    11     8     6
 -0.0020399959     1    11     8     7
 -0.0011062456     1    11     8    12
 0.0002815280     1    11     8    13
 0.0020399959     1    11     9     6
 0.0012253976     1    11     9     7
 -0.0002815280     1    11     9    12
 -0.0011062456     1    11     9    13
 0.2190907166     1    11    10     1
 -0.0153117230     1    11    10     3
 -0.0088802375     1    11    10     5
 -0.5810235948     1    11    11     1
 0.0206660435     1    11    11     3
 0.0046667996     1    11    11     5
 -0.0020005599     1    11    12     8
 -0.0005091217     1    11    12     9
 0.0005091217     1    11    13     8
 -0.0020005599     1    11    13     9
 0.0002434057     1    12     2     8
 0.0000619442     1    12     2     9
 0.0062962583     1    12     3     6
 -0.0062370317     1    12     3     7
 0.0080968440     1    12     4     8
 0.0020605623     1    12     4     9
 0.0012748494     1    12     5     6
 -0.0012628573     1    12     5     7
 -0.1515651940     1    12     6     1
 0.0160360755     1    12     6     3
 0.0052622327     1    12     6     5
 0.1501394758     1    12     7     1
 -0.0158852300     1    12     7     3
 -0.0052127328     1    12     7     5
 0.0000000008     1    12     8     1
 -0.1846258602     1    12     8     2
 0.0228759104     1    12     8     4
 0.0126351717     1    12     8    10
 0.0011062456     1    12     8    11
 0.0000000002     1    12     9     1
 -0.0469853541     1    12     9     2
 0.0058216804     1    12     9     4
 0.0032155193     1    12     9    10
 0.0002815280     1    12     9    11
 0.0027784423     1    12    10     8
 0.0007070846     1    12    10     9
 -0.0008943143     1    12    11     8
 -0.0002275937     1    12    11     9
 -0.5840289744     1    12    12     1
 0.0178235489     1    12    12     3
 0.0088481744     1    12    12     5
 -0.0000619442     1    13     2     8
 0.0002434057     1    13     2     9
 0.0062370317     1    13     3     6
 0.0062962583     1    13     3     7
 -0.0020605623     1    13     4     8
 0.0080968440     1    13     4     9
 0.0012628573     1    13     5     6
 0.0012748494     1    13     5     7
 -0.1501394758     1    13     6     1
 0.0158852300     1    13     6     3
 0.0052127328     1    13     6     5
 -0.1515651940     1    13     7     1
 0.0160360755     1    13     7     3
 0.0052622327     1    13     7     5
 -0.0000000002     1    13     8     1
 0.0469853541     1    13     8     2
 -0.0058216804     1    13     8     4
 -0.0032155193     1    13     8    10
 -0.0002815280     1    13     8    11
 0.0000000008     1    13     9     1
 -0.1846258602     1    13     9     2
 0.0228759104     1    13     9     4
 0.0126351717     1    13     9    10
 0.0011062456     1    13     9    11
 -0.0007070846     1    13    10     8
 0.0027784423     1    13    10     9
 0.0002275937     1    13    11     8
 -0.0008943143     1    13    11     9
 -0.5840289744     1    13    13     1
 0.0178235489     1    13    13     3
 0.0088481744     1    13    13     5
 -0.3720376756     2     1     1     2
 0.0032650739     2     1     1     4
 -0.0075652690     2     1     1    10
 0.0103561471     2     1     1    11
 -0.0035256206     2     1     3     2
 0.2217586795     2     1     3     4
 0.1629830093     2     1     3    10
 -0.0398220613     2     1     3    11
 0.2216944386     2     1     4     3
 0.2111688299     2     1     4     5
 0.0096401315     2     1     5     2
 0.2109961342     2     1     5     4
 -0.1851375177     2     1     5    10
 0.2208499337     2     1     5    11
 0.1342346143     2     1     6     8
 0.2234687245     2     1     6     9
 -0.2234687245     2     1     7     8
 0.1342346143     2     1     7     9
 0.1343460212     2     1     8     6
 -0.2236541905     2     1     8     7
 0.1848692659     2     1     8    12
 -0.0470472983     2     1     8    13
 0.2236541905     2     1     9     6
 0.1343460212     2     1     9     7
 0.0470472983     2     1     9    12
 0.1848692659     2     1     9    13
 0.1631303390     2     1    10     3
 -0.1855278893     2     1    10     5
 -0.0000000001     2     1    11     2
 -0.0400243965     2     1    11     3
 0.2213873694     2     1    11     5
 0.1846258602     2     1    12     8
 0.0469853541     2     1    12     9
 -0.0469853541     2     1    13     8
 0.1846258602     2     1    13     9
 0.3720376756     2     2     1     1
 0.0035256206     2     2     1     3
 -0.0096401315     2     2     1     5
 0.0000000001     2     2     1    11
 0.0035256206     2     2     3     1
 0.6792341025     2     2     3     3
 0.0000000010     2     2     3     4
 -0.0593591387     2     2     3     5
 0.0000000007     2     2     3    10
 -0.0000000002     2     2     3    11
 0.0000000010     2     2     4     3
 0.6187128241     2     2     4     4
 0.0000000009     2     2     4     5
 0.0757332165     2     2     4    10
 0.1115899147     2     2     4    11
 -0.0096401315     2     2     5     1
 -0.0593591387     2     2     5     3
 0.0000000009     2     2     5     4
 0.6423805692     2     2     5     5
 -0.0000000008     2     2     5    10
 0.0000000009     2     2     5    11
 0.6032127608     2     2     6     6
 0.0000000006     2     2     6     8
 0.0000000010     2     2     6     9
 0.1517558774     2     2     6    12
 0.1503283654     2     2     6    13
 0.6032127608     2     2     7     7
 -0.0000000010     2     2     7     8
 0.0000000006     2     2     7     9
 -0.1503283654     2     2     7    12
 0.1517558774     2     2     7    13
 0.0000000006     2     2     8     6
 -0.0000000010     2     2     8     7
 0.6030907590     2     2     8     8
 0.0000000008     2     2     8    12
 -0.0000000002     2     2     8    13
 0.0000000010     2     2     9     6
 0.0000000006     2     2     9     7
 0.6030907590     2     2     9     9
 0.0000000002     2     2     9    12
 0.0000000008     2     2     9    13
 0.0000000007     2     2    10     3
 0.0757332165     2     2    10     4
 -0.0000000008     2     2    10     5
 0.6044691463     2     2    10    10
 -0.2186680972     2     2    10    11
 0.0000000001     2     2    11     1
 -0.0000000002     2     2    11     3
 0.1115899147     2     2    11     4
 0.0000000009     2     2    11     5
 -0.2186680972     2     2    11    10
 0.5804553095     2     2    11    11
 0.1517558774     2     2    12     6
 -0.1503283654     2     2    12     7
 0.0000000008     2     2    12     8
 0.0000000002     2     2    12     9
 0.5843411762     2     2    12    12
 0.1503283654     2     2    13     6
 0.1517558774     2     2    13     7
 -0.0000000002     2     2    13     8
 0.0000000008     2     2    13     9
 0.5843411762     2     2    13    13
 -0.0035256206     2     3     1     2
 0.0000642409     2     3     1     4
 -0.0001473297     2     3     1    10
 0.0002023352     2     3     1    11
 -0.6792341025     2     3     3     2
 0.0050240409     2     3     3     4
 -0.0122514334     2     3     3    10
 0.0178831993     2     3     3    11
 -0.2216944386     2     3     4     1
 -0.0000000010     2     3     4     2
 -0.0111602784     2     3     4     5
 0.0593591387     2     3     5     2
 -0.0141202701     2     3     5     4
 0.0173174947     2     3     5    10
 -0.0270974831     2     3     5    11
 -0.0106349013     2     3     6     8
 -0.0177045828     2     3     6     9
 0.0177045828     2     3     7     8
 -0.0106349013     2     3     7     9
 -0.0088805883     2     3     8     6
 0.0147840687     2     3     8     7
 -0.0203269275     2     3     8    12
 0.0051729909     2     3     8    13
 -0.0147840687     2     3     9     6
 -0.0088805883     2     3     9     7
 -0.0051729909     2     3     9    12
 -0.0203269275     2     3     9    13
 -0.1631303390     2     3    10     1
 -0.0000000007     2     3    10     2
 0.0149526273     2     3    10     5
 0.0400243965     2     3    11     1
 0.0000000002     2     3    11     2
 -0.0180420949     2     3    11     5
 -0.0152313691     2     3    12     8
 -0.0038762245     2     3    12     9
 0.0038762245     2     3    13     8
 -0.0152313691     2     3    13     9
 -0.0032650739     2     4     1     1
 -0.0000642409     2     4     1     3
 0.0001726957     2     4     1     5
 -0.2217586795     2     4     3     1
 -0.0000000010     2     4     3     2
 -0.0050240409     2     4     3     3
 0.0029599917     2     4     3     5
 -0.6187128241     2     4     4     2
 0.0038711974     2     4     4    10
 -0.0067595869     2     4     4    11
 -0.2109961342     2     4     5     1
 -0.0000000009     2     4     5     2
 0.0141202701     2     4     5     3
 -0.0197992130     2     4     5     5
 -0.0175655533     2     4     6     6
 -0.0148643516     2     4     6    12
 -0.0147245281     2     4     6    13
 -0.0175655533     2     4     7     7
 0.0147245281     2     4     7    12
 -0.0148643516     2     4     7    13
 -0.0204794525     2     4     8     8
 -0.0204794525     2     4     9     9
 -0.0757332165     2     4    10     2
 -0.0177956359     2     4    10    10
 0.0200295880     2     4    10    11
 -0.1115899147     2     4    11     2
 0.0184374858     2     4    11    10
 -0.0198205251     2     4    11    11
 -0.0106689137     2     4    12     6
 0.0105685551     2     4    12     7
 -0.0205143798     2     4    12    12
 -0.0105685551     2     4    13     6
 -0.0106689137     2     4    13     7
 -0.0205143798     2     4    13    13
 0.0096401315     2     5     1     2
 -0.0001726957     2     5     1     4
 0.0003903716     2     5     1    10
 -0.0005374357     2     5     1    11
 0.0593591387     2     5     3     2
 -0.0029599917     2     5     3     4
 0.0023648674     2     5     3    10
 -0.0090553882     2     5     3    11
 -0.2111688299     2     5     4     1
 -0.0000000009     2     5     4     2
 0.0111602784     2     5     4     3
 -0.6423805692     2     5     5     2
 0.0197992130     2     5     5     4
 0.0055639227     2     5     5    10
 0.0009054564     2     5     5    11
 -0.0005946114     2     5     6     8
 -0.0009898867     2     5     6     9
 0.0009898867     2     5     7     8
 -0.0005946114     2     5     7     9
 -0.0013630529     2     5     8     6
 0.0022691591     2     5     8     7
 -0.0069913717     2     5     8    12
 0.0017792311     2     5     8    13
 -0.0022691591     2     5     9     6
 -0.0013630529     2     5     9     7
 -0.0017792311     2     5     9    12
 -0.0069913717     2     5     9    13
 0.1855278893     2     5    10     1
 0.0000000008     2     5    10     2
 -0.0149526273     2     5    10     3
 -0.2213873694     2     5    11     1
 -0.0000000009     2     5    11     2
 0.0180420949     2     5    11     3
 -0.0032223600     2     5    12     8
 -0.0008200570     2     5    12     9
 0.0008200570     2     5    13     8
 -0.0032223600     2     5    13     9
 -0.0001114069     2     6     1     8
 -0.0001854660     2     6     1     9
 -0.0017543130     2     6     3     8
 -0.0029205141     2     6     3     9
 -0.0041954379     2     6     4    12
 -0.0041559730     2     6     4    13
 0.0007684415     2     6     5     8
 0.0012792724     2     6     5     9
 -0.6032127608     2     6     6     2
 0.0175655533     2     6     6     4
 0.0041106722     2     6     6    10
 0.0075887811     2     6     6    11
 -0.1343460212     2     6     8     1
 -0.0000000006     2     6     8     2
 0.0088805883     2     6     8     3
 0.0013630529     2     6     8     5
 -0.2236541905     2     6     9     1
 -0.0000000010     2     6     9     2
 0.0147840687     2     6     9     3
 0.0022691591     2     6     9     5
 -0.0019588656     2     6    10    12
 -0.0019404392     2     6    10    13
 0.0007529625     2     6    11    12
 0.0007458797     2     6    11    13
 -0.1517558774     2     6    12     2
 0.0106689137     2     6    12     4
 0.0052961011     2     6    12    10
 0.0033207561     2     6    12    11
 -0.1503283654     2     6    13     2
 0.0105685551     2     6    13     4
 0.0052462827     2     6    13    10
 0.0032895190     2     6    13    11
 0.0001854660     2     7     1     8
 -0.0001114069     2     7     1     9
 0.0029205141     2     7     3     8
 -0.0017543130     2     7     3     9
 0.0041559730     2     7     4    12
 -0.0041954379     2     7     4    13
 -0.0012792724     2     7     5     8
 0.0007684415     2     7     5     9
 -0.6032127608     2     7     7     2
 0.0175655533     2     7     7     4
 0.0041106722     2     7     7    10
 0.0075887811     2     7     7    11
 0.2236541905     2     7     8     1
 0.0000000010     2     7     8     2
 -0.0147840687     2     7     8     3
 -0.0022691591     2     7     8     5
 -0.1343460212     2     7     9     1
 -0.0000000006     2     7     9     2
 0.0088805883     2     7     9     3
 0.0013630529     2     7     9     5
 0.0019404392     2     7    10    12
 -0.0019588656     2     7    10    13
 -0.0007458797     2     7    11    12
 0.0007529625     2     7    11    13
 0.1503283654     2     7    12     2
 -0.0105685551     2     7    12     4
 -0.0052462827     2     7    12    10
 -0.0032895190     2     7    12    11
 -0.1517558774     2     7    13     2
 0.0106689137     2     7    13     4
 0.0052961011     2     7    13    10
 0.0033207561     2     7    13    11
 0.0001114069     2     8     1     6
 -0.0001854660     2     8     1     7
 0.0002434057     2     8     1    12
 -0.0000619442     2     8     1    13
 0.0017543130     2     8     3     6
 -0.0029205141     2     8     3     7
 -0.0050955584     2     8     3    12
 0.0012967664     2     8     3    13
 -0.0007684415     2     8     5     6
 0.0012792724     2     8     5     7
 -0.0037690117     2     8     5    12
 0.0009591741     2     8     5    13
 -0.1342346143     2     8     6     1
 -0.0000000006     2     8     6     2
 0.0106349013     2     8     6     3
 0.0005946114     2     8     6     5
 0.2234687245     2     8     7     1
 0.0000000010     2     8     7     2
 -0.0177045828     2     8     7     3
 -0.0009898867     2     8     7     5
 -0.6030907590     2     8     8     2
 0.0204794525     2     8     8     4
 0.0087381590     2     8     8    10
 0.0034264852     2     8     8    11
 -0.1846258602     2     8    12     1
 -0.0000000008     2     8    12     2