&FCI NORB= 13,NELEC= 14,MS2=0,
 ORBSYM=1,1,1,1,1,1,1,1,1,1,1,1,1
 ISYM=1,
&END
 0.1790980128     1     1     2     2
 -0.0000555140     1     1     2     4
 -0.0021218083     1     1     2    10
 0.5436810595     1     1     3     3
 -0.0000000018     1     1     3     4
 -0.0001187874     1     1     3     5
 0.0000000001     1     1     3    10
 0.0756624004     1     1     3    11
 -0.0000555140     1     1     4     2
 -0.0000000018     1     1     4     3
 0.5480772152     1     1     4     4
 0.0000000003     1     1     4     5
 -0.0232330595     1     1     4    10
 -0.0000000003     1     1     4    11
 -0.0001187874     1     1     5     3
 0.0000000003     1     1     5     4
 0.5129292781     1     1     5     5
 0.0000000015     1     1     5    10
 0.1595559789     1     1     5    11
 0.5164792494     1     1     6     6
 -0.0000000013     1     1     6     8
 0.0000000010     1     1     6     9
 0.0001408090     1     1     6    12
 -0.1921535988     1     1     6    13
 0.5164792494     1     1     7     7
 -0.0000000009     1     1     7     8
 -0.0000000013     1     1     7     9
 -0.1921535988     1     1     7    12
 -0.0001408090     1     1     7    13
 -0.0000000013     1     1     8     6
 -0.0000000009     1     1     8     7
 0.5238386532     1     1     8     8
 -0.0000000001     1     1     8    11
 0.0000000002     1     1     8    12
 0.0000000009     1     1     8    13
 0.0000000010     1     1     9     6
 -0.0000000013     1     1     9     7
 0.5238386532     1     1     9     9
 0.0000000008     1     1     9    12
 -0.0000000009     1     1     9    13
 -0.0021218083     1     1    10     2
 0.0000000001     1     1    10     3
 -0.0232330595     1     1    10     4
 0.0000000015     1     1    10     5
 0.5409098310     1     1    10    10
 0.0000000011     1     1    10    11
 -0.0000000001     1     1    10    13
 0.0756624004     1     1    11     3
 -0.0000000003     1     1    11     4
 0.1595559789     1     1    11     5
 -0.0000000001     1     1    11     8
 0.0000000011     1     1    11    10
 0.5317271001     1     1    11    11
 0.0001408090     1     1    12     6
 -0.1921535988     1     1    12     7
 0.0000000002     1     1    12     8
 0.0000000008     1     1    12     9
 0.5084823101     1     1    12    12
 -0.1921535988     1     1    13     6
 -0.0001408090     1     1    13     7
 0.0000000009     1     1    13     8
 -0.0000000009     1     1    13     9
 -0.0000000001     1     1    13    10
 0.5084823101     1     1    13    13
 -0.1790980128     1     2     2     1
 -0.0000774254     1     2     2     3
 -0.0019864299     1     2     2     5
 -0.0018771487     1     2     2    11
 0.3669399460     1     2     3     4
 -0.0203068391     1     2     3    10
 0.0000555140     1     2     4     1
 0.3669589059     1     2     4     3
 -0.0477160227     1     2     4     5
 0.0676305009     1     2     4    11
 -0.0477153665     1     2     5     4
 0.0000000002     1     2     5     6
 -0.3169140338     1     2     5    10
 -0.0000000001     1     2     5    13
 0.0000000002     1     2     6     5
 0.0000000009     1     2     6     6
 -0.0000000011     1     2     6     7
 0.2695450705     1     2     6     8
 -0.1843154065     1     2     6     9
 0.0000000001     1     2     6    11
 0.0000000003     1     2     6    12
 -0.0000000003     1     2     6    13
 -0.0000000011     1     2     7     6
 -0.0000000009     1     2     7     7
 0.1843154065     1     2     7     8
 0.2695450705     1     2     7     9
 0.0000000003     1     2     7    12
 0.0000000003     1     2     7    13
 0.2695238554     1     2     8     6
 0.1843008997     1     2     8     7
 0.0000000007     1     2     8     8
 0.0000000014     1     2     8     9
 0.0000000002     1     2     8    10
 -0.1160042193     1     2     8    12
 -0.1699130617     1     2     8    13
 -0.1843008996     1     2     9     6
 0.2695238554     1     2     9     7
 0.0000000014     1     2     9     8
 -0.0000000008     1     2     9     9
 -0.0000000001     1     2     9    10
 -0.1699130617     1     2     9    12
 0.1160042193     1     2     9    13
 0.0021218083     1     2    10     1
 -0.0203086982     1     2    10     3
 -0.3168683066     1     2    10     5
 0.0000000002     1     2    10     8
 -0.0000000001     1     2    10     9
 -0.2230956802     1     2    10    11
 0.0676506900     1     2    11     4
 0.0000000001     1     2    11     6
 -0.2231449003     1     2    11    10
 0.0000000003     1     2    12     6
 0.0000000003     1     2    12     7
 -0.1160198504     1     2    12     8
 -0.1699359568     1     2    12     9
 -0.0000000002     1     2    12    12
 -0.0000000002     1     2    12    13
 -0.0000000001     1     2    13     5
 -0.0000000003     1     2    13     6
 0.0000000003     1     2    13     7
 -0.1699359568     1     2    13     8
 0.1160198504     1     2    13     9
 -0.0000000002     1     2    13    12
 0.0000000002     1     2    13    13
 0.0000774254     1     3     2     2
 -0.0000109932     1     3     2     4
 0.0000023184     1     3     2    10
 -0.5436810595     1     3     3     1
 -0.0011696836     1     3     3     5
 -0.0016284516     1     3     3    11
 0.0000000018     1     3     4     1
 -0.3669589059     1     3     4     2
 -0.0002322307     1     3     4     4
 -0.0016473522     1     3     4    10
 0.0001187874     1     3     5     1
 -0.0175700923     1     3     5     5
 -0.0200147472     1     3     5    11
 -0.0183198947     1     3     6     6
 -0.0000163405     1     3     6    12
 0.0222989187     1     3     6    13
 -0.0183198947     1     3     7     7
 0.0222989187     1     3     7    12
 0.0000163405     1     3     7    13
 -0.0179636826     1     3     8     8
 -0.0179636826     1     3     9     9
 0.0000000001     1     3     9    13
 -0.0000000001     1     3    10     1
 0.0203086982     1     3    10     2
 -0.0008903077     1     3    10     4
 -0.0187040778     1     3    10    10
 -0.0756624004     1     3    11     1
 -0.0133425522     1     3    11     5
 -0.0163379550     1     3    11    11
 -0.0000107401     1     3    12     6
 0.0146563530     1     3    12     7
 -0.0193796234     1     3    12    12
 0.0146563530     1     3    13     6
 0.0000107401     1     3    13     7
 -0.0193796234     1     3    13    13
 0.0000555140     1     4     2     1
 0.0000109932     1     4     2     3
 0.0000013431     1     4     2     5
 -0.0000114509     1     4     2    11
 0.0000000018     1     4     3     1
 -0.3669399460     1     4     3     2
 -0.0007224067     1     4     3    10
 -0.5480772152     1     4     4     1
 0.0002322307     1     4     4     3
 0.0000055931     1     4     4     5
 0.0003851457     1     4     4    11
 -0.0000000003     1     4     5     1
 0.0477153665     1     4     5     2
 0.0180099508     1     4     5    10
 -0.0149414115     1     4     6     8
 0.0102169642     1     4     6     9
 0.0000000001     1     4     7     7
 -0.0102169641     1     4     7     8
 -0.0149414115     1     4     7     9
 -0.0000000001     1     4     7    12
 -0.0143446660     1     4     8     6
 -0.0098089085     1     4     8     7
 -0.0000000001     1     4     8     9
 0.0125146619     1     4     8    12
 0.0183304068     1     4     8    13
 0.0098089086     1     4     9     6
 -0.0143446660     1     4     9     7
 -0.0000000001     1     4     9     8
 0.0000000001     1     4     9     9
 0.0183304068     1     4     9    12
 -0.0125146619     1     4     9    13
 0.0232330595     1     4    10     1
 0.0008903077     1     4    10     3
 0.0171636740     1     4    10     5
 0.0209003294     1     4    10    11
 0.0000000003     1     4    11     1
 -0.0676506900     1     4    11     2
 0.0151661841     1     4    11    10
 0.0088166287     1     4    12     8
 0.0129138438     1     4    12     9
 0.0129138438     1     4    13     8
 -0.0088166287     1     4    13     9
 0.0019864299     1     5     2     2
 -0.0000013431     1     5     2     4
 -0.0000468861     1     5     2    10
 0.0001187874     1     5     3     1
 0.0011696836     1     5     3     3
 -0.0064462124     1     5     3    11
 -0.0000000003     1     5     4     1
 0.0477160227     1     5     4     2
 -0.0000055931     1     5     4     4
 0.0005637706     1     5     4    10
 -0.5129292781     1     5     5     1
 0.0175700923     1     5     5     3
 0.0037948538     1     5     5    11
 -0.0000000002     1     5     6     2
 0.0019779162     1     5     6     6
 0.0000009864     1     5     6    12
 -0.0013460102     1     5     6    13
 0.0019779162     1     5     7     7
 -0.0013460102     1     5     7    12
 -0.0000009864     1     5     7    13
 0.0020146115     1     5     8     8
 0.0020146115     1     5     9     9
 -0.0000000015     1     5    10     1
 0.3168683066     1     5    10     2
 -0.0171636740     1     5    10     4
 0.0042323620     1     5    10    10
 -0.1595559789     1     5    11     1
 0.0133425522     1     5    11     3
 0.0106755746     1     5    11    11
 0.0000010642     1     5    12     6
 -0.0014522347     1     5    12     7
 0.0027903559     1     5    12    12
 0.0000000001     1     5    13     2
 -0.0014522347     1     5    13     6
 -0.0000010642     1     5    13     7
 0.0027903559     1     5    13    13
 0.0000205167     1     6     2     8
 -0.0000140294     1     6     2     9
 -0.0000054609     1     6     3    12
 0.0074521558     1     6     3    13
 -0.0003794488     1     6     4     8
 0.0002594678     1     6     4     9
 -0.0000000002     1     6     5     2
 -0.0000001367     1     6     5    12
 0.0001865451     1     6     5    13
 -0.5164792494     1     6     6     1
 -0.0000000009     1     6     6     2
 0.0183198947     1     6     6     3
 -0.0019779162     1     6     6     5
 0.0041152114     1     6     6    11
 0.0000000011     1     6     7     2
 0.0000000013     1     6     8     1
 -0.2695238554     1     6     8     2
 0.0143446660     1     6     8     4
 -0.0019256664     1     6     8    10
 -0.0000000010     1     6     9     1
 0.1843008996     1     6     9     2
 -0.0098089086     1     6     9     4
 0.0013167742     1     6     9    10
 -0.0000273036     1     6    10     8
 0.0000186703     1     6    10     9
 -0.0000000001     1     6    11     2
 0.0000006842     1     6    11    12
 -0.0009336315     1     6    11    13
 -0.0001408090     1     6    12     1
 -0.0000000003     1     6    12     2
 0.0000107401     1     6    12     3
 -0.0000010642     1     6    12     5
 0.0000054717     1     6    12    11
 0.1921535988     1     6    13     1
 0.0000000003     1     6    13     2
 -0.0146563530     1     6    13     3
 0.0014522347     1     6    13     5
 -0.0074669032     1     6    13    11
 0.0000140294     1     7     2     8
 0.0000205167     1     7     2     9
 0.0074521558     1     7     3    12
 0.0000054609     1     7     3    13
 -0.0002594678     1     7     4     8
 -0.0003794488     1     7     4     9
 -0.0000000001     1     7     4    12
 0.0001865451     1     7     5    12
 0.0000001367     1     7     5    13
 0.0000000011     1     7     6     2
 -0.5164792494     1     7     7     1
 0.0000000009     1     7     7     2
 0.0183198947     1     7     7     3
 -0.0000000001     1     7     7     4
 -0.0019779162     1     7     7     5
 0.0041152114     1     7     7    11
 0.0000000009     1     7     8     1
 -0.1843008997     1     7     8     2
 0.0098089085     1     7     8     4
 -0.0013167742     1     7     8    10
 0.0000000013     1     7     9     1
 -0.2695238554     1     7     9     2
 0.0143446660     1     7     9     4
 -0.0019256664     1     7     9    10
 -0.0000186703     1     7    10     8
 -0.0000273036     1     7    10     9
 -0.0009336315     1     7    11    12
 -0.0000006842     1     7    11    13
 0.1921535988     1     7    12     1
 -0.0000000003     1     7    12     2
 -0.0146563530     1     7    12     3
 0.0014522347     1     7    12     5
 -0.0074669032     1     7    12    11
 0.0001408090     1     7    13     1
 -0.0000000003     1     7    13     2
 -0.0000107401     1     7    13     3
 0.0000010642     1     7    13     5
 -0.0000054717     1     7    13    11
 -0.0000205167     1     8     2     6
 -0.0000140294     1     8     2     7
 0.0000155269     1     8     2    12
 0.0000227425     1     8     2    13
 0.0003794488     1     8     4     6
 0.0002594678     1     8     4     7
 0.0036434071     1     8     4    12
 0.0053365512     1     8     4    13
 0.0000000013     1     8     6     1
 -0.2695450705     1     8     6     2
 0.0149414115     1     8     6     4
 -0.0020419308     1     8     6    10
 0.0000000009     1     8     7     1
 -0.1843154065     1     8     7     2
 0.0102169641     1     8     7     4
 -0.0013962759     1     8     7    10
 -0.5238386532     1     8     8     1
 -0.0000000007     1     8     8     2
 0.0179636826     1     8     8     3
 -0.0020146115     1     8     8     5
 0.0047144212     1     8     8    11
 -0.0000000014     1     8     9     2
 0.0000000001     1     8     9     4
 -0.0000000002     1     8    10     2
 0.0000273036     1     8    10     6
 0.0000186703     1     8    10     7
 -0.0002678283     1     8    10    12
 -0.0003922919     1     8    10    13
 0.0000000001     1     8    11     1
 -0.0000000002     1     8    12     1
 0.1160198504     1     8    12     2
 -0.0088166287     1     8    12     4
 0.0008387373     1     8    12    10
 -0.0000000009     1     8    13     1
 0.1699359568     1     8    13     2
 -0.0129138438     1     8    13     4
 0.0012285108     1     8    13    10
 0.0000140294     1     9     2     6
 -0.0000205167     1     9     2     7
 0.0000227425     1     9     2    12
 -0.0000155269     1     9     2    13
 0.0000000001     1     9     3    13
 -0.0002594678     1     9     4     6
 0.0003794488     1     9     4     7
 0.0053365512     1     9     4    12
 -0.0036434071     1     9     4    13
 -0.0000000010     1     9     6     1
 0.1843154065     1     9     6     2
 -0.0102169642     1     9     6     4
 0.0013962759     1     9     6    10
 0.0000000013     1     9     7     1
 -0.2695450705     1     9     7     2
 0.0149414115     1     9     7     4
 -0.0020419308     1     9     7    10
 -0.0000000014     1     9     8     2
 0.0000000001     1     9     8     4
 -0.5238386532     1     9     9     1
 0.0000000008     1     9     9     2
 0.0179636826     1     9     9     3
 -0.0000000001     1     9     9     4
 -0.0020146115     1     9     9     5
 0.0047144212     1     9     9    11
 0.0000000001     1     9    10     2
 -0.0000186703     1     9    10     6
 0.0000273036     1     9    10     7
 -0.0003922919     1     9    10    12
 0.0002678283     1     9    10    13
 -0.0000000008     1     9    12     1
 0.1699359568     1     9    12     2
 -0.0129138438     1     9    12     4
 0.0012285108     1     9    12    10
 0.0000000009     1     9    13     1
 -0.1160198504     1     9    13     2
 0.0088166287     1     9    13     4
 -0.0008387373     1     9    13    10
 0.0021218083     1    10     2     1
 -0.0000023184     1    10     2     3
 0.0000468861     1    10     2     5
 0.0000497265     1    10     2    11
 -0.0000000001     1    10     3     1
 0.0203068391     1    10     3     2
 0.0007224067     1    10     3     4
 0.0232330595     1    10     4     1
 0.0016473522     1    10     4     3
 -0.0005637706     1    10     4     5
 0.0055883466     1    10     4    11
 -0.0000000015     1    10     5     1
 0.3169140338     1    10     5     2
 -0.0180099508     1    10     5     4
 0.0020419308     1    10     6     8
 -0.0013962759     1    10     6     9
 0.0013962759     1    10     7     8
 0.0020419308     1    10     7     9
 -0.0000000002     1    10     8     2
 0.0019256664     1    10     8     6
 0.0013167742     1    10     8     7
 -0.0011179763     1    10     8    12
 -0.0016375161     1    10     8    13
 0.0000000001     1    10     9     2
 -0.0013167742     1    10     9     6
 0.0019256664     1    10     9     7
 -0.0016375161     1    10     9    12
 0.0011179763     1    10     9    13
 -0.5409098310     1    10    10     1
 0.0187040778     1    10    10     3
 -0.0042323620     1    10    10     5
 0.0025894441     1    10    10    11
 -0.0000000011     1    10    11     1
 0.2231449003     1    10    11     2
 -0.0151661841     1    10    11     4
 -0.0008387373     1    10    12     8
 -0.0012285108     1    10    12     9
 0.0000000001     1    10    13     1
 -0.0012285108     1    10    13     8
 0.0008387373     1    10    13     9
 0.0018771487     1    11     2     2
 0.0000114509     1    11     2     4
 -0.0000497265     1    11     2    10
 -0.0756624004     1    11     3     1
 0.0016284516     1    11     3     3
 0.0064462124     1    11     3     5
 0.0000000003     1    11     4     1
 -0.0676305009     1    11     4     2
 -0.0003851457     1    11     4     4
 -0.0055883466     1    11     4    10
 -0.1595559789     1    11     5     1
 0.0200147472     1    11     5     3
 -0.0037948538     1    11     5     5
 -0.0000000001     1    11     6     2
 -0.0041152114     1    11     6     6
 -0.0000048710     1    11     6    12
 0.0066472019     1    11     6    13
 -0.0041152114     1    11     7     7
 0.0066472019     1    11     7    12
 0.0000048710     1    11     7    13
 0.0000000001     1    11     8     1
 -0.0047144212     1    11     8     8
 -0.0047144212     1    11     9     9
 -0.0000000011     1    11    10     1
 0.2230956802     1    11    10     2
 -0.0209003294     1    11    10     4
 -0.0025894441     1    11    10    10
 -0.5317271001     1    11    11     1
 0.0163379550     1    11    11     3
 -0.0106755746     1    11    11     5
 -0.0000054717     1    11    12     6
 0.0074669032     1    11    12     7
 -0.0086864277     1    11    12    12
 0.0074669032     1    11    13     6
 0.0000054717     1    11    13     7
 -0.0086864277     1    11    13    13
 -0.0000155269     1    12     2     8
 -0.0000227425     1    12     2     9
 0.0000054609     1    12     3     6
 -0.0074521558     1    12     3     7
 0.0000000001     1    12     4     7
 -0.0036434071     1    12     4     8
 -0.0053365512     1    12     4     9
 0.0000001367     1    12     5     6
 -0.0001865451     1    12     5     7
 -0.0001408090     1    12     6     1
 -0.0000000003     1    12     6     2
 0.0000163405     1    12     6     3
 -0.0000009864     1    12     6     5
 0.0000048710     1    12     6    11
 0.1921535988     1    12     7     1
 -0.0000000003     1    12     7     2
 -0.0222989187     1    12     7     3
 0.0000000001     1    12     7     4
 0.0013460102     1    12     7     5
 -0.0066472019     1    12     7    11
 -0.0000000002     1    12     8     1
 0.1160042193     1    12     8     2
 -0.0125146619     1    12     8     4
 0.0011179763     1    12     8    10
 -0.0000000008     1    12     9     1
 0.1699130617     1    12     9     2
 -0.0183304068     1    12     9     4
 0.0016375161     1    12     9    10
 0.0002678283     1    12    10     8
 0.0003922919     1    12    10     9
 -0.0000006842     1    12    11     6
 0.0009336315     1    12    11     7
 -0.5084823101     1    12    12     1
 0.0000000002     1    12    12     2
 0.0193796234     1    12    12     3
 -0.0027903559     1    12    12     5
 0.0086864277     1    12    12    11
 0.0000000002     1    12    13     2
 -0.0000227425     1    13     2     8
 0.0000155269     1    13     2     9
 -0.0074521558     1    13     3     6
 -0.0000054609     1    13     3     7
 -0.0000000001     1    13     3     9
 -0.0053365512     1    13     4     8
 0.0036434071     1    13     4     9
 0.0000000001     1    13     5     2
 -0.0001865451     1    13     5     6
 -0.0000001367     1    13     5     7
 0.1921535988     1    13     6     1
 0.0000000003     1    13     6     2
 -0.0222989187     1    13     6     3
 0.0013460102     1    13     6     5
 -0.0066472019     1    13     6    11
 0.0001408090     1    13     7     1
 -0.0000000003     1    13     7     2
 -0.0000163405     1    13     7     3
 0.0000009864     1    13     7     5
 -0.0000048710     1    13     7    11
 -0.0000000009     1    13     8     1
 0.1699130617     1    13     8     2
 -0.0183304068     1    13     8     4
 0.0016375161     1    13     8    10
 0.0000000009     1    13     9     1
 -0.1160042193     1    13     9     2
 -0.0000000001     1    13     9     3
 0.0125146619     1    13     9     4
 -0.0011179763     1    13     9    10
 0.0000000001     1    13    10     1
 0.0003922919     1    13    10     8
 -0.0002678283     1    13    10     9
 0.0009336315     1    13    11     6
 0.0000006842     1    13    11     7
 0.0000000002     1    13    12     2
 -0.5084823101     1    13    13     1
 -0.0000000002     1    13    13     2
 0.0193796234     1    13    13     3
 -0.0027903559     1    13    13     5
 0.0086864277     1    13    13    11
 -0.1790980128     2     1     1     2
 0.0000555140     2     1     1     4
 0.0021218083     2     1     1    10
 -0.0000774254     2     1     3     2
 0.3669589059     2     1     3     4
 -0.0203086982     2     1     3    10
 0.3669399460     2     1     4     3
 -0.0477153665     2     1     4     5
 0.0676506900     2     1     4    11
 -0.0019864299     2     1     5     2
 -0.0477160227     2     1     5     4
 0.0000000002     2     1     5     6
 -0.3168683066     2     1     5    10
 -0.0000000001     2     1     5    13
 0.0000000002     2     1     6     5
 0.0000000009     2     1     6     6
 -0.0000000011     2     1     6     7
 0.2695238554     2     1     6     8
 -0.1843008996     2     1     6     9
 0.0000000001     2     1     6    11
 0.0000000003     2     1     6    12
 -0.0000000003     2     1     6    13
 -0.0000000011     2     1     7     6
 -0.0000000009     2     1     7     7
 0.1843008997     2     1     7     8
 0.2695238554     2     1     7     9
 0.0000000003     2     1     7    12
 0.0000000003     2     1     7    13
 0.2695450705     2     1     8     6
 0.1843154065     2     1     8     7
 0.0000000007     2     1     8     8
 0.0000000014     2     1     8     9
 0.0000000002     2     1     8    10
 -0.1160198504     2     1     8    12
 -0.1699359568     2     1     8    13
 -0.1843154065     2     1     9     6
 0.2695450705     2     1     9     7
 0.0000000014     2     1     9     8
 -0.0000000008     2     1     9     9
 -0.0000000001     2     1     9    10
 -0.1699359568     2     1     9    12
 0.1160198504     2     1     9    13
 -0.0203068391     2     1    10     3
 -0.3169140338     2     1    10     5
 0.0000000002     2     1    10     8
 -0.0000000001     2     1    10     9
 -0.2231449003     2     1    10    11
 -0.0018771487     2     1    11     2
 0.0676305009     2     1    11     4
 0.0000000001     2     1    11     6
 -0.2230956802     2     1    11    10
 0.0000000003     2     1    12     6
 0.0000000003     2     1    12     7
 -0.1160042193     2     1    12     8
 -0.1699130617     2     1    12     9
 -0.0000000002     2     1    12    12
 -0.0000000002     2     1    12    13
 -0.0000000001     2     1    13     5
 -0.0000000003     2     1    13     6
 0.0000000003     2     1    13     7
 -0.1699130617     2     1    13     8
 0.1160042193     2     1    13     9
 -0.0000000002     2     1    13    12
 0.0000000002     2     1    13    13
 0.1790980128     2     2     1     1
 0.0000774254     2     2     1     3
 0.0019864299     2     2     1     5
 0.0018771487     2     2     1    11
 0.0000774254     2     2     3     1
 0.5436780205     2     2     3     3
 0.0000000018     2     2     3     4
 -0.0001127836     2     2     3     5
 -0.0000000001     2     2     3    10
 0.0756864246     2     2     3    11
 0.0000000018     2     2     4     3
 0.5480802713     2     2     4     4
 -0.0000000003     2     2     4     5
 -0.0232460126     2     2     4    10
 0.0000000003     2     2     4    11
 0.0019864299     2     2     5     1
 -0.0001127836     2     2     5     3
 -0.0000000003     2     2     5     4
 0.5129718688     2     2     5     5
 -0.0000000015     2     2     5    10
 0.1596021303     2     2     5    11
 0.5165015908     2     2     6     6
 0.0000000013     2     2     6     8
 -0.0000000009     2     2     6     9
 0.0001408274     2     2     6    12
 -0.1921786601     2     2     6    13
 0.5165015908     2     2     7     7
 0.0000000010     2     2     7     8
 0.0000000013     2     2     7     9
 -0.1921786601     2     2     7    12
 -0.0001408274     2     2     7    13
 0.0000000013     2     2     8     6
 0.0000000010     2     2     8     7
 0.5238148240     2     2     8     8
 -0.0000000001     2     2     8    11
 -0.0000000009     2     2     8    12
 -0.0000000008     2     2     8    13
 -0.0000000009     2     2     9     6
 0.0000000013     2     2     9     7
 0.5238148240     2     2     9     9
 -0.0000000009     2     2     9    12
 0.0000000002     2     2     9    13
 -0.0000000001     2     2    10     3
 -0.0232460126     2     2    10     4
 -0.0000000015     2     2    10     5
 0.5408636008     2     2    10    10
 -0.0000000011     2     2    10    11
 -0.0000000001     2     2    10    13
 0.0018771487     2     2    11     1
 0.0756864246     2     2    11     3
 0.0000000003     2     2    11     4
 0.1596021303     2     2    11     5
 -0.0000000001     2     2    11     8
 -0.0000000011     2     2    11    10
 0.5317858327     2     2    11    11
 0.0001408274     2     2    12     6
 -0.1921786601     2     2    12     7
 -0.0000000009     2     2    12     8
 -0.0000000009     2     2    12     9
 0.5085110213     2     2    12    12
 -0.1921786601     2     2    13     6
 -0.0001408274     2     2    13     7
 -0.0000000008     2     2    13     8
 0.0000000002     2     2    13     9
 -0.0000000001     2     2    13    10
 0.5085110213     2     2    13    13
 -0.0000774254     2     3     1     2
 0.0000109932     2     3     1     4
 -0.0000023184     2     3     1    10
 -0.5436780205     2     3     3     2
 0.0001123472     2     3     3     4
 0.0014887408     2     3     3    10
 -0.3669399460     2     3     4     1
 -0.0000000018     2     3     4     2
 0.0018944783     2     3     4     5
 0.0019106909     2     3     4    11
 0.0001127836     2     3     5     2
 0.0010318727     2     3     5     4
 0.0184435188     2     3     5    10
 -0.0000000001     2     3     6     6
 -0.0150704598     2     3     6     8
 0.0103052076     2     3     6     9
 0.0000000001     2     3     6    13
 -0.0103052076     2     3     7     8
 -0.0150704598     2     3     7     9
 -0.0141006452     2     3     8     6
 -0.0096420467     2     3     8     7
 -0.0000000001     2     3     8     8
 -0.0000000001     2     3     8     9
 0.0122218181     2     3     8    12
 0.0179014742     2     3     8    13
 0.0096420467     2     3     9     6
 -0.0141006452     2     3     9     7
 -0.0000000001     2     3     9     8
 0.0179014742     2     3     9    12
 -0.0122218181     2     3     9    13
 0.0203068391     2     3    10     1
 0.0000000001     2     3    10     2
 0.0166708449     2     3    10     5
 0.0199313966     2     3    10    11
 -0.0756864246     2     3    11     2
 0.0011527262     2     3    11     4
 0.0146679446     2     3    11    10
 0.0086251871     2     3    12     8
 0.0126334367     2     3    12     9
 0.0126334367     2     3    13     8
 -0.0086251871     2     3    13     9
 -0.0000555140     2     4     1     1
 -0.0000109932     2     4     1     3
 -0.0000013431     2     4     1     5
 0.0000114509     2     4     1    11
 -0.3669589059     2     4     3     1
 -0.0000000018     2     4     3     2
 -0.0001123472     2     4     3     3
 0.0008657503     2     4     3     5
 0.0008366476     2     4     3    11
 -0.5480802713     2     4     4     2
 0.0002736663     2     4     4    10
 0.0477160227     2     4     5     1
 0.0000000003     2     4     5     2
 -0.0010318727     2     4     5     3
 -0.0172153801     2     4     5     5
 -0.0198249780     2     4     5    11
 -0.0182830555     2     4     6     6
 -0.0000162907     2     4     6    12
 0.0222309437     2     4     6    13
 -0.0182830555     2     4     7     7
 0.0222309437     2     4     7    12
 0.0000162907     2     4     7    13
 -0.0184604286     2     4     8     8
 0.0000000001     2     4     8    12
 -0.0184604286     2     4     9     9
 0.0232460126     2     4    10     2
 -0.0195035277     2     4    10    10
 -0.0676305009     2     4    11     1
 -0.0000000003     2     4    11     2
 -0.0011527262     2     4    11     3
 -0.0135605684     2     4    11     5
 -0.0173676370     2     4    11    11
 -0.0000109407     2     4    12     6
 0.0149301204     2     4    12     7
 -0.0198653975     2     4    12    12
 0.0149301204     2     4    13     6
 0.0000109407     2     4    13     7
 -0.0198653975     2     4    13    13
 -0.0019864299     2     5     1     2
 0.0000013431     2     5     1     4
 0.0000468861     2     5     1    10
 0.0001127836     2     5     3     2
 -0.0008657503     2     5     3     4
 0.0015408196     2     5     3    10
 0.0477153665     2     5     4     1
 0.0000000003     2     5     4     2
 -0.0018944783     2     5     4     3
 -0.0059923408     2     5     4    11
 -0.5129718688     2     5     5     2
 0.0172153801     2     5     5     4
 0.0003084431     2     5     5    10
 -0.0000000002     2     5     6     1
 -0.0000516490     2     5     6     8
 0.0000353177     2     5     6     9
 -0.0000353177     2     5     7     8
 -0.0000516490     2     5     7     9
 -0.0000145842     2     5     8     6
 -0.0000099728     2     5     8     7
 -0.0006983956     2     5     8    12
 -0.0010229503     2     5     8    13