&FCI NORB= 13,NELEC= 14,MS2=0,
 ORBSYM=1,1,1,1,1,1,1,1,1,1,1,1,1
 ISYM=1,
&END
 0.2014869593     1     1     2     2
 -0.0001583946     1     1     2     4
 0.0027263298     1     1     2    10
 0.5539482410     1     1     3     3
 -0.0000000001     1     1     3     4
 0.0000512854     1     1     3     5
 0.0979216344     1     1     3    11
 -0.0001583946     1     1     4     2
 -0.0000000001     1     1     4     3
 0.5602071038     1     1     4     4
 0.0299858130     1     1     4    10
 0.0000512854     1     1     5     3
 0.5297424211     1     1     5     5
 0.0000000001     1     1     5    10
 -0.1400625765     1     1     5    11
 0.5252353213     1     1     6     6
 -0.0000000001     1     1     6     9
 0.1939295855     1     1     6    12
 0.0030818736     1     1     6    13
 0.5252353213     1     1     7     7
 0.0000000001     1     1     7     8
 -0.0030818736     1     1     7    12
 0.1939295855     1     1     7    13
 0.0000000001     1     1     8     7
 0.5364190760     1     1     8     8
 0.0000000001     1     1     8    13
 -0.0000000001     1     1     9     6
 0.5364190760     1     1     9     9
 -0.0000000001     1     1     9    12
 0.0027263298     1     1    10     2
 0.0299858130     1     1    10     4
 0.0000000001     1     1    10     5
 0.5602685335     1     1    10    10
 -0.0000000001     1     1    10    11
 0.0979216344     1     1    11     3
 -0.1400625765     1     1    11     5
 -0.0000000001     1     1    11    10
 0.5465547496     1     1    11    11
 0.1939295855     1     1    12     6
 -0.0030818736     1     1    12     7
 -0.0000000001     1     1    12     9
 0.5206704085     1     1    12    12
 0.0030818736     1     1    13     6
 0.1939295855     1     1    13     7
 0.0000000001     1     1    13     8
 0.5206704085     1     1    13    13
 -0.2014869593     1     2     2     1
 -0.0000717853     1     2     2     3
 0.0025522010     1     2     2     5
 -0.0021296187     1     2     2    11
 0.3551642301     1     2     3     4
 0.0312429330     1     2     3    10
 0.0001583946     1     2     4     1
 0.3551731396     1     2     4     3
 0.0653977398     1     2     4     5
 0.0871253248     1     2     4    11
 0.0653987785     1     2     5     4
 -0.3082860098     1     2     5    10
 0.0122805155     1     2     6     8
 0.3199117755     1     2     6     9
 -0.3199117754     1     2     7     8
 0.0122805155     1     2     7     9
 0.0122790440     1     2     8     6
 -0.3198734437     1     2     8     7
 0.0114280099     1     2     8    12
 -0.2104139273     1     2     8    13
 0.3198734437     1     2     9     6
 0.0122790440     1     2     9     7
 0.2104139273     1     2     9    12
 0.0114280099     1     2     9    13
 -0.0027263298     1     2    10     1
 0.0312418333     1     2    10     3
 -0.3082173581     1     2    10     5
 0.2217310433     1     2    10    11
 0.0871515637     1     2    11     4
 0.2217978764     1     2    11    10
 0.0114301821     1     2    12     8
 0.2104539225     1     2    12     9
 -0.2104539225     1     2    13     8
 0.0114301821     1     2    13     9
 0.0000717853     1     3     2     2
 -0.0000000235     1     3     2     4
 -0.0000003516     1     3     2    10
 -0.5539482410     1     3     3     1
 0.0017030562     1     3     3     5
 -0.0021777139     1     3     3    11
 0.0000000001     1     3     4     1
 -0.3551731396     1     3     4     2
 -0.0002085284     1     3     4     4
 0.0023394159     1     3     4    10
 -0.0000512854     1     3     5     1
 -0.0179424930     1     3     5     5
 0.0187559363     1     3     5    11
 -0.0181452103     1     3     6     6
 -0.0224358807     1     3     6    12
 -0.0003565446     1     3     6    13
 -0.0181452103     1     3     7     7
 0.0003565446     1     3     7    12
 -0.0224358807     1     3     7    13
 -0.0183075849     1     3     8     8
 -0.0183075849     1     3     9     9
 -0.0312418333     1     3    10     2
 0.0014302318     1     3    10     4
 -0.0192510396     1     3    10    10
 -0.0979216344     1     3    11     1
 0.0124933117     1     3    11     5
 -0.0138038791     1     3    11    11
 -0.0147257449     1     3    12     6
 0.0002340173     1     3    12     7
 -0.0194607328     1     3    12    12
 -0.0002340173     1     3    13     6
 -0.0147257449     1     3    13     7
 -0.0194607328     1     3    13    13
 0.0001583946     1     4     2     1
 0.0000000235     1     4     2     3
 -0.0000032421     1     4     2     5
 -0.0000164431     1     4     2    11
 0.0000000001     1     4     3     1
 -0.3551642301     1     4     3     2
 0.0008772902     1     4     3    10
 -0.5602071038     1     4     4     1
 0.0002085284     1     4     4     3
 -0.0002204262     1     4     4     5
 0.0006961304     1     4     4    11
 -0.0653987785     1     4     5     2
 0.0184614710     1     4     5    10
 -0.0007016703     1     4     6     8
 -0.0182787587     1     4     6     9
 0.0182787587     1     4     7     8
 -0.0007016703     1     4     7     9
 -0.0006794279     1     4     8     6
 0.0176993371     1     4     8     7
 -0.0012384692     1     4     8    12
 0.0228028479     1     4     8    13
 -0.0176993371     1     4     9     6
 -0.0006794279     1     4     9     7
 -0.0228028479     1     4     9    12
 -0.0012384692     1     4     9    13
 -0.0299858130     1     4    10     1
 -0.0014302318     1     4    10     3
 0.0175951071     1     4    10     5
 -0.0200842365     1     4    10    11
 -0.0871515637     1     4    11     2
 -0.0145547743     1     4    11    10
 -0.0008747117     1     4    12     8
 -0.0161053010     1     4    12     9
 0.0161053010     1     4    13     8
 -0.0008747117     1     4    13     9
 -0.0025522010     1     5     2     2
 0.0000032421     1     5     2     4
 -0.0000696083     1     5     2    10
 -0.0000512854     1     5     3     1
 -0.0017030562     1     5     3     3
 0.0060527427     1     5     3    11
 -0.0653977398     1     5     4     2
 0.0002204262     1     5     4     4
 0.0005708161     1     5     4    10
 -0.5297424211     1     5     5     1
 0.0179424930     1     5     5     3
 0.0051387969     1     5     5    11
 -0.0026751636     1     5     6     6
 -0.0017722563     1     5     6    12
 -0.0000281641     1     5     6    13
 -0.0026751636     1     5     7     7
 0.0000281641     1     5     7    12
 -0.0017722563     1     5     7    13
 -0.0027800617     1     5     8     8
 -0.0027800617     1     5     9     9
 -0.0000000001     1     5    10     1
 0.3082173581     1     5    10     2
 -0.0175951071     1     5    10     4
 -0.0059707168     1     5    10    10
 0.1400625765     1     5    11     1
 -0.0124933117     1     5    11     3
 -0.0130284131     1     5    11    11
 -0.0020339991     1     5    12     6
 0.0000323237     1     5    12     7
 -0.0038539680     1     5    12    12
 -0.0000323237     1     5    13     6
 -0.0020339991     1     5    13     7
 -0.0038539680     1     5    13    13
 0.0000013797     1     6     2     8
 0.0000359417     1     6     2     9
 -0.0075654729     1     6     3    12
 -0.0001202283     1     6     3    13
 -0.0000135862     1     6     4     8
 -0.0003539257     1     6     4     9
 0.0003100102     1     6     5    12
 0.0000049266     1     6     5    13
 -0.5252353213     1     6     6     1
 0.0181452103     1     6     6     3
 0.0026751636     1     6     6     5
 0.0054078069     1     6     6    11
 -0.0122790440     1     6     8     2
 0.0006794279     1     6     8     4
 0.0001282223     1     6     8    10
 0.0000000001     1     6     9     1
 -0.3198734437     1     6     9     2
 0.0176993371     1     6     9     4
 0.0033402345     1     6     9    10
 0.0000012925     1     6    10     8
 0.0000336716     1     6    10     9
 0.0012653279     1     6    11    12
 0.0000201083     1     6    11    13
 -0.1939295855     1     6    12     1
 0.0147257449     1     6    12     3
 0.0020339991     1     6    12     5
 0.0099353319     1     6    12    11
 -0.0030818736     1     6    13     1
 0.0002340173     1     6    13     3
 0.0000323237     1     6    13     5
 0.0001578895     1     6    13    11
 -0.0000359417     1     7     2     8
 0.0000013797     1     7     2     9
 0.0001202283     1     7     3    12
 -0.0075654729     1     7     3    13
 0.0003539257     1     7     4     8
 -0.0000135862     1     7     4     9
 -0.0000049266     1     7     5    12
 0.0003100102     1     7     5    13
 -0.5252353213     1     7     7     1
 0.0181452103     1     7     7     3
 0.0026751636     1     7     7     5
 0.0054078069     1     7     7    11
 -0.0000000001     1     7     8     1
 0.3198734437     1     7     8     2
 -0.0176993371     1     7     8     4
 -0.0033402345     1     7     8    10
 -0.0122790440     1     7     9     2
 0.0006794279     1     7     9     4
 0.0001282223     1     7     9    10
 -0.0000336716     1     7    10     8
 0.0000012925     1     7    10     9
 -0.0000201083     1     7    11    12
 0.0012653279     1     7    11    13
 0.0030818736     1     7    12     1
 -0.0002340173     1     7    12     3
 -0.0000323237     1     7    12     5
 -0.0001578895     1     7    12    11
 -0.1939295855     1     7    13     1
 0.0147257449     1     7    13     3
 0.0020339991     1     7    13     5
 0.0099353319     1     7    13    11
 -0.0000013797     1     8     2     6
 0.0000359417     1     8     2     7
 -0.0000021680     1     8     2    12
 0.0000399173     1     8     2    13
 0.0000135862     1     8     4     6
 -0.0003539257     1     8     4     7
 -0.0003541313     1     8     4    12
 0.0065203085     1     8     4    13
 -0.0122805155     1     8     6     2
 0.0007016703     1     8     6     4
 0.0001347662     1     8     6    10
 -0.0000000001     1     8     7     1
 0.3199117754     1     8     7     2
 -0.0182787587     1     8     7     4
 -0.0035107051     1     8     7    10
 -0.5364190760     1     8     8     1
 0.0183075849     1     8     8     3
 0.0027800617     1     8     8     5
 0.0064772031     1     8     8    11
 -0.0000012925     1     8    10     6
 0.0000336716     1     8    10     7
 -0.0000419454     1     8    10    12
 0.0007723029     1     8    10    13
 -0.0114301821     1     8    12     2
 0.0008747117     1     8    12     4
 0.0001244691     1     8    12    10
 -0.0000000001     1     8    13     1
 0.2104539225     1     8    13     2
 -0.0161053010     1     8    13     4
 -0.0022917402     1     8    13    10
 -0.0000359417     1     9     2     6
 -0.0000013797     1     9     2     7
 -0.0000399173     1     9     2    12
 -0.0000021680     1     9     2    13
 0.0003539257     1     9     4     6
 0.0000135862     1     9     4     7
 -0.0065203085     1     9     4    12
 -0.0003541313     1     9     4    13
 0.0000000001     1     9     6     1
 -0.3199117755     1     9     6     2
 0.0182787587     1     9     6     4
 0.0035107051     1     9     6    10
 -0.0122805155     1     9     7     2
 0.0007016703     1     9     7     4
 0.0001347662     1     9     7    10
 -0.5364190760     1     9     9     1
 0.0183075849     1     9     9     3
 0.0027800617     1     9     9     5
 0.0064772031     1     9     9    11
 -0.0000336716     1     9    10     6
 -0.0000012925     1     9    10     7
 -0.0007723029     1     9    10    12
 -0.0000419454     1     9    10    13
 0.0000000001     1     9    12     1
 -0.2104539225     1     9    12     2
 0.0161053010     1     9    12     4
 0.0022917402     1     9    12    10
 -0.0114301821     1     9    13     2
 0.0008747117     1     9    13     4
 0.0001244691     1     9    13    10
 -0.0027263298     1    10     2     1
 0.0000003516     1    10     2     3
 0.0000696083     1    10     2     5
 -0.0000674168     1    10     2    11
 -0.0312429330     1    10     3     2
 -0.0008772902     1    10     3     4
 -0.0299858130     1    10     4     1
 -0.0023394159     1    10     4     3
 -0.0005708161     1    10     4     5
 -0.0053053210     1    10     4    11
 -0.0000000001     1    10     5     1
 0.3082860098     1    10     5     2
 -0.0184614710     1    10     5     4
 -0.0001347662     1    10     6     8
 -0.0035107051     1    10     6     9
 0.0035107051     1    10     7     8
 -0.0001347662     1    10     7     9
 -0.0001282223     1    10     8     6
 0.0033402345     1    10     8     7
 -0.0001672549     1    10     8    12
 0.0030795183     1    10     8    13
 -0.0033402345     1    10     9     6
 -0.0001282223     1    10     9     7
 -0.0030795183     1    10     9    12
 -0.0001672549     1    10     9    13
 -0.5602685335     1    10    10     1
 0.0192510396     1    10    10     3
 0.0059707168     1    10    10     5
 0.0035481804     1    10    10    11
 0.0000000001     1    10    11     1
 -0.2217978764     1    10    11     2
 0.0145547743     1    10    11     4
 -0.0001244691     1    10    12     8
 -0.0022917402     1    10    12     9
 0.0022917402     1    10    13     8
 -0.0001244691     1    10    13     9
 0.0021296187     1    11     2     2
 0.0000164431     1    11     2     4
 0.0000674168     1    11     2    10
 -0.0979216344     1    11     3     1
 0.0021777139     1    11     3     3
 -0.0060527427     1    11     3     5
 -0.0871253248     1    11     4     2
 -0.0006961304     1    11     4     4
 0.0053053210     1    11     4    10
 0.1400625765     1    11     5     1
 -0.0187559363     1    11     5     3
 -0.0051387969     1    11     5     5
 -0.0054078069     1    11     6     6
 -0.0087247099     1    11     6    12
 -0.0001386506     1    11     6    13
 -0.0054078069     1    11     7     7
 0.0001386506     1    11     7    12
 -0.0087247099     1    11     7    13
 -0.0064772031     1    11     8     8
 -0.0064772031     1    11     9     9
 0.0000000001     1    11    10     1
 -0.2217310433     1    11    10     2
 0.0200842365     1    11    10     4
 -0.0035481804     1    11    10    10
 -0.5465547496     1    11    11     1
 0.0138038791     1    11    11     3
 0.0130284131     1    11    11     5
 -0.0099353319     1    11    12     6
 0.0001578895     1    11    12     7
 -0.0115083172     1    11    12    12
 -0.0001578895     1    11    13     6
 -0.0099353319     1    11    13     7
 -0.0115083172     1    11    13    13
 0.0000021680     1    12     2     8
 0.0000399173     1    12     2     9
 0.0075654729     1    12     3     6
 -0.0001202283     1    12     3     7
 0.0003541313     1    12     4     8
 0.0065203085     1    12     4     9
 -0.0003100102     1    12     5     6
 0.0000049266     1    12     5     7
 -0.1939295855     1    12     6     1
 0.0224358807     1    12     6     3
 0.0017722563     1    12     6     5
 0.0087247099     1    12     6    11
 0.0030818736     1    12     7     1
 -0.0003565446     1    12     7     3
 -0.0000281641     1    12     7     5
 -0.0001386506     1    12     7    11
 -0.0114280099     1    12     8     2
 0.0012384692     1    12     8     4
 0.0001672549     1    12     8    10
 0.0000000001     1    12     9     1
 -0.2104139273     1    12     9     2
 0.0228028479     1    12     9     4
 0.0030795183     1    12     9    10
 0.0000419454     1    12    10     8
 0.0007723029     1    12    10     9
 -0.0012653279     1    12    11     6
 0.0000201083     1    12    11     7
 -0.5206704085     1    12    12     1
 0.0194607328     1    12    12     3
 0.0038539680     1    12    12     5
 0.0115083172     1    12    12    11
 -0.0000399173     1    13     2     8
 0.0000021680     1    13     2     9
 0.0001202283     1    13     3     6
 0.0075654729     1    13     3     7
 -0.0065203085     1    13     4     8
 0.0003541313     1    13     4     9
 -0.0000049266     1    13     5     6
 -0.0003100102     1    13     5     7
 -0.0030818736     1    13     6     1
 0.0003565446     1    13     6     3
 0.0000281641     1    13     6     5
 0.0001386506     1    13     6    11
 -0.1939295855     1    13     7     1
 0.0224358807     1    13     7     3
 0.0017722563     1    13     7     5
 0.0087247099     1    13     7    11
 -0.0000000001     1    13     8     1
 0.2104139273     1    13     8     2
 -0.0228028479     1    13     8     4
 -0.0030795183     1    13     8    10
 -0.0114280099     1    13     9     2
 0.0012384692     1    13     9     4
 0.0001672549     1    13     9    10
 -0.0007723029     1    13    10     8
 0.0000419454     1    13    10     9
 -0.0000201083     1    13    11     6
 -0.0012653279     1    13    11     7
 -0.5206704085     1    13    13     1
 0.0194607328     1    13    13     3
 0.0038539680     1    13    13     5
 0.0115083172     1    13    13    11
 -0.2014869593     2     1     1     2
 0.0001583946     2     1     1     4
 -0.0027263298     2     1     1    10
 -0.0000717853     2     1     3     2
 0.3551731396     2     1     3     4
 0.0312418333     2     1     3    10
 0.3551642301     2     1     4     3
 0.0653987785     2     1     4     5
 0.0871515637     2     1     4    11
 0.0025522010     2     1     5     2
 0.0653977398     2     1     5     4
 -0.3082173581     2     1     5    10
 0.0122790440     2     1     6     8
 0.3198734437     2     1     6     9
 -0.3198734437     2     1     7     8
 0.0122790440     2     1     7     9
 0.0122805155     2     1     8     6
 -0.3199117754     2     1     8     7
 0.0114301821     2     1     8    12
 -0.2104539225     2     1     8    13
 0.3199117755     2     1     9     6
 0.0122805155     2     1     9     7
 0.2104539225     2     1     9    12
 0.0114301821     2     1     9    13
 0.0312429330     2     1    10     3
 -0.3082860098     2     1    10     5
 0.2217978764     2     1    10    11
 -0.0021296187     2     1    11     2
 0.0871253248     2     1    11     4
 0.2217310433     2     1    11    10
 0.0114280099     2     1    12     8
 0.2104139273     2     1    12     9
 -0.2104139273     2     1    13     8
 0.0114280099     2     1    13     9
 0.2014869593     2     2     1     1
 0.0000717853     2     2     1     3
 -0.0025522010     2     2     1     5
 0.0021296187     2     2     1    11
 0.0000717853     2     2     3     1
 0.5539576830     2     2     3     3
 0.0000000001     2     2     3     4
 0.0000441038     2     2     3     5
 0.0979547088     2     2     3    11
 0.0000000001     2     2     4     3
 0.5601969878     2     2     4     4
 0.0299997879     2     2     4    10
 -0.0025522010     2     2     5     1
 0.0000441038     2     2     5     3
 0.5298056200     2     2     5     5
 -0.0000000001     2     2     5    10
 -0.1401231978     2     2     5    11
 0.5252643663     2     2     6     6
 0.0000000001     2     2     6     9
 0.1939631440     2     2     6    12
 0.0030824069     2     2     6    13
 0.5252643663     2     2     7     7
 -0.0000000001     2     2     7     8
 -0.0030824069     2     2     7    12
 0.1939631440     2     2     7    13
 -0.0000000001     2     2     8     7
 0.5363851734     2     2     8     8
 -0.0000000001     2     2     8    13
 0.0000000001     2     2     9     6
 0.5363851734     2     2     9     9
 0.0000000001     2     2     9    12
 0.0299997879     2     2    10     4
 -0.0000000001     2     2    10     5
 0.5601996498     2     2    10    10
 0.0000000001     2     2    10    11
 0.0021296187     2     2    11     1
 0.0979547088     2     2    11     3
 -0.1401231978     2     2    11     5
 0.0000000001     2     2    11    10
 0.5466277404     2     2    11    11
 0.1939631440     2     2    12     6
 -0.0030824069     2     2    12     7
 0.0000000001     2     2    12     9
 0.5207102226     2     2    12    12
 0.0030824069     2     2    13     6
 0.1939631440     2     2    13     7
 -0.0000000001     2     2    13     8
 0.5207102226     2     2    13    13
 -0.0000717853     2     3     1     2
 0.0000000235     2     3     1     4
 0.0000003516     2     3     1    10
 -0.5539576830     2     3     3     2
 0.0000367575     2     3     3     4
 -0.0020694304     2     3     3    10
 -0.3551642301     2     3     4     1
 -0.0000000001     2     3     4     2
 -0.0025442714     2     3     4     5
 0.0022928576     2     3     4    11
 -0.0000441038     2     3     5     2
 -0.0016175870     2     3     5     4
 0.0190015073     2     3     5    10
 -0.0007095374     2     3     6     8
 -0.0184836994     2     3     6     9
 0.0184836994     2     3     7     8
 -0.0007095374     2     3     7     9
 -0.0006616656     2     3     8     6
 0.0172366219     2     3     8     7
 -0.0011953769     2     3     8    12
 0.0220094264     2     3     8    13
 -0.0172366219     2     3     9     6
 -0.0006616656     2     3     9     7
 -0.0220094264     2     3     9    12
 -0.0011953769     2     3     9    13
 -0.0312429330     2     3    10     1
 0.0169003409     2     3    10     5
 -0.0186090428     2     3    10    11
 -0.0979547088     2     3    11     2
 0.0015611569     2     3    11     4
 -0.0137752371     2     3    11    10
 -0.0008443885     2     3    12     8
 -0.0155469843     2     3    12     9
 0.0155469843     2     3    13     8
 -0.0008443885     2     3    13     9
 -0.0001583946     2     4     1     1
 -0.0000000235     2     4     1     3
 0.0000032421     2     4     1     5
 0.0000164431     2     4     1    11
 -0.3551731396     2     4     3     1
 -0.0000000001     2     4     3     2
 -0.0000367575     2     4     3     3
 -0.0009311573     2     4     3     5
 0.0008199486     2     4     3    11
 -0.5601969878     2     4     4     2
 -0.0000645088     2     4     4    10
 -0.0653977398     2     4     5     1
 0.0016175870     2     4     5     3
 -0.0174725496     2     4     5     5
 0.0187306752     2     4     5    11
 -0.0181655627     2     4     6     6
 -0.0223946054     2     4     6    12
 -0.0003558887     2     4     6    13
 -0.0181655627     2     4     7     7
 0.0003558887     2     4     7    12
 -0.0223946054     2     4     7    13
 -0.0190772931     2     4     8     8
 -0.0190772931     2     4     9     9
 -0.0299997879     2     4    10     2
 -0.0205161768     2     4    10    10
 -0.0871253248     2     4    11     1
 -0.0015611569     2     4    11     3
 0.0127702372     2     4    11     5
 -0.0154509336     2     4    11    11
 -0.0151875623     2     4    12     6
 0.0002413564     2     4    12     7
 -0.0202781073     2     4    12    12
 -0.0002413564     2     4    13     6
 -0.0151875623     2     4    13     7
 -0.0202781073     2     4    13    13
 0.0025522010     2     5     1     2
 -0.0000032421     2     5     1     4
 0.0000696083     2     5     1    10
 -0.0000441038     2     5     3     2
 0.0009311573     2     5     3     4
 0.0018768590     2     5     3    10
 -0.0653987785     2     5     4     1
 0.0025442714     2     5     4     3
 0.0056972453     2     5     4    11
 -0.5298056200     2     5     5     2
 0.0174725496     2     5     5     4
 -0.0000129647     2     5     5    10
 -0.0000010915     2     5     6     8
 -0.0000284342     2     5     6     9
 0.0000284342     2     5     7     8
 -0.0000010915     2     5     7     9
 -0.0000085364     2     5     8     6
 0.0002223771     2     5     8     7
 -0.0000964372     2     5     8    12
 0.0017756134     2     5     8    13
 -0.0002223771     2     5     9     6
 -0.0000085364     2     5     9     7
 -0.0017756134     2     5     9    12
 -0.0000964372     2     5     9    13
 0.3082860098     2     5    10     1
 0.0000000001     2     5    10     2
 -0.0169003409     2     5    10     3
 -0.0086800238     2     5    10    11
 0.1401231978     2     5    11     2
 -0.0127702372     2     5    11     4
 -0.0038582542     2     5    11    10
 -0.0000988769     2     5    12     8
 -0.0018205337     2     5    12     9
 0.0018205337     2     5    13     8
 -0.0000988769     2     5    13     9
 -0.0000013797     2     6     1     8
 -0.0000359417     2     6     1     9
 -0.0000431533     2     6     3     8
 -0.0011241605     2     6     3     9
 -0.0069657721     2     6     4    12
 -0.0001106981     2     6     4    13
 0.0000062981     2     6     5     8
 0.0001640675     2     6     5     9
 -0.5252643663     2     6     6     2
 0.0181655627     2     6     6     4
 0.0006624685     2     6     6    10
 -0.0122805155     2     6     8     1
 0.0006616656     2     6     8     3
 0.0000085364     2     6     8     5
 0.0003134227     2     6     8    11
 -0.3199117755     2     6     9     1
 -0.0000000001     2     6     9     2
 0.0172366219     2     6     9     3
 0.0002223771     2     6     9     5
 0.0081647734     2     6     9    11
 -0.0007392016     2     6    10    12
 -0.0000117472     2     6    10    13
 0.0000145587     2     6    11     8
 0.0003792606     2     6    11     9
 -0.1939631440     2     6    12     2
 0.0151875623     2     6    12     4
 0.0020204982     2     6    12    10
 -0.0030824069     2     6    13     2
 0.0002413564     2     6    13     4
 0.0000321092     2     6    13    10
 0.0000359417     2     7     1     8
 -0.0000013797     2     7     1     9
 0.0011241605     2     7     3     8
 -0.0000431533     2     7     3     9
 0.0001106981     2     7     4    12
 -0.0069657721     2     7     4    13
 -0.0001640675     2     7     5     8
 0.0000062981     2     7     5     9
 -0.5252643663     2     7     7     2
 0.0181655627     2     7     7     4
 0.0006624685     2     7     7    10
 0.3199117754     2     7     8     1
 0.0000000001     2     7     8     2
 -0.0172366219     2     7     8     3
 -0.0002223771     2     7     8     5
 -0.0081647734     2     7     8    11
 -0.0122805155     2     7     9     1
 0.0006616656     2     7     9     3
 0.0000085364     2     7     9     5
 0.0003134227     2     7     9    11
 0.0000117472     2     7    10    12
 -0.0007392016     2     7    10    13
 -0.0003792606     2     7    11     8
 0.0000145587     2     7    11     9
 0.0030824069     2     7    12     2
 -0.0002413564     2     7    12     4
 -0.0000321092     2     7    12    10
 -0.1939631440     2     7    13     2
 0.0151875623     2     7    13     4
 0.0020204982     2     7    13    10
 0.0000013797     2     8     1     6
 -0.0000359417     2     8     1     7
 0.0000021680     2     8     1    12
 -0.0000399173     2     8     1    13
 0.0000431533     2     8     3     6
 -0.0011241605     2     8     3     7
 -0.0003420978     2     8     3    12
 0.0062987487     2     8     3    13
 -0.0000062981     2     8     5     6
 0.0001640675     2     8     5     7
 0.0000060387     2     8     5    12
 -0.0001111854     2     8     5    13
 -0.0122790440     2     8     6     1
 0.0007095374     2     8     6     3
 0.0000010915     2     8     6     5
 0.0003126156     2     8     6    11
 0.3198734437     2     8     7     1
 0.0000000001     2     8     7     2
 -0.0184836994     2     8     7     3
 -0.0000284342     2     8     7     5
 -0.0081437472     2     8     7    11
 -0.5363851734     2     8     8     2
 0.0190772931     2     8     8     4
 0.0011495684     2     8     8    10
 -0.0000145587     2     8    11     6
 0.0003792606     2     8    11     7
 0.0000436943     2     8    11    12
 -0.0008045046     2     8    11    13
 -0.0114280099     2     8    12     1
 0.0008443885     2     8    12     3
 0.0000988769     2     8    12     5
 0.0005645814     2     8    12    11
 0.2104139273     2     8    13     1
 0.0000000001     2     8    13     2
 -0.0155469843     2     8    13     3
 -0.0018205337     2     8    13     5
 -0.0103951429     2     8    13    11
 0.0000359417     2     9     1     6
 0.0000013797     2     9     1     7
 0.0000399173     2     9     1    12
 0.0000021680     2     9     1    13
 0.0011241605     2     9     3     6
 0.0000431533     2     9     3     7
 -0.0062987487     2     9     3    12
 -0.0003420978     2     9     3    13
 -0.0001640675     2     9     5     6
 -0.0000062981     2     9     5     7
 0.0001111854     2     9     5    12
 0.0000060387     2     9     5    13
 -0.3198734437     2     9     6     1
 -0.0000000001     2     9     6     2
 0.0184836994     2     9     6     3
 0.0000284342     2     9     6     5
 0.0081437472     2     9     6    11
 -0.0122790440     2     9     7     1
 0.0007095374     2     9     7     3
 0.0000010915     2     9     7     5
 0.0003126156     2     9     7    11
 -0.5363851734     2     9     9     2
 0.0190772931     2     9     9     4
 0.0011495684     2     9     9    10
 -0.0003792606     2     9    11     6
 -0.0000145587     2     9    11     7
 0.0008045046     2     9    11    12
 0.0000436943     2     9    11    13
 -0.2104139273     2     9    12     1
 -0.0000000001     2     9    12     2
 0.0155469843     2     9    12     3
 0.0018205337     2     9    12     5
 0.0103951429     2     9    12    11
 -0.0114280099     2     9    13     1
 0.0008443885     2     9    13     3
 0.0000988769     2     9    13     5
 0.0005645814     2     9    13    11
 0.0027263298     2    10     1     1
 -0.0000003516     2    10     1     3
 -0.0000696083     2    10     1     5
 0.0000674168     2    10     1    11
 -0.0312418333     2    10     3     1
 0.0020694304     2    10     3     3
 -0.0018768590     2    10     3     5
 -0.0046086075     2    10     3    11
 -0.0299997879     2    10     4     2
 0.0000645088     2    10     4     4
 0.3082173581     2    10     5     1
 0.0000000001     2    10     5     2
 -0.0190015073     2    10     5     3
 0.0000129647     2    10     5     5
 -0.0051786759     2    10     5    11
 -0.0006624685     2    10     6     6
 -0.0025114926     2    10     6    12
 -0.0000399119     2    10     6    13
 -0.0006624685     2    10     7     7
 0.0000399119     2    10     7    12
 -0.0025114926     2    10     7    13
 -0.0011495684     2    10     8     8