&FCI NORB= 19,NELEC= 14,MS2=0,
 ORBSYM=1,1,1,1,1,1,1,1,1,1,1,1,1,1,1,1,1,1,1
 ISYM=1,
&END
 0.4030632904     1     1     2     2
 0.0043834277     1     1     2     4
 0.0068669803     1     1     2    10
 0.0132195405     1     1     2    14
 0.0020143167     1     1     2    18
 0.7133541659     1     1     3     3
 -0.0723674583     1     1     3     5
 0.0543010642     1     1     3    11
 0.1431530653     1     1     3    15
 0.0043834277     1     1     4     2
 0.6240840477     1     1     4     4
 -0.0890102652     1     1     4    10
 0.1067827270     1     1     4    14
 -0.1270566778     1     1     4    18
 -0.0723674583     1     1     5     3
 0.6539030387     1     1     5     5
 -0.1874112487     1     1     5    11
 0.0859110082     1     1     5    15
 0.6214720491     1     1     6     6
 -0.0000803967     1     1     6     7
 -0.0118338247     1     1     6    12
 0.2156005203     1     1     6    13
 0.0046450847     1     1     6    19
 -0.0000803967     1     1     7     6
 0.6214496085     1     1     7     7
 0.2156333017     1     1     7    12
 0.0122282263     1     1     7    13
 -0.0040418269     1     1     7    19
 0.6073174252     1     1     8     8
 0.0000207752     1     1     8     9
 -0.2345555423     1     1     8    16
 -0.0080847638     1     1     8    17
 0.0000207752     1     1     9     8
 0.6073425706     1     1     9     9
 0.0081541733     1     1     9    16
 -0.2345101838     1     1     9    17
 0.0068669803     1     1    10     2
 -0.0890102652     1     1    10     4
 0.5456551233     1     1    10    10
 0.2162420090     1     1    10    14
 0.1366487728     1     1    10    18
 0.0543010642     1     1    11     3
 -0.1874112487     1     1    11     5
 0.5001652211     1     1    11    11
 0.0099107752     1     1    11    15
 -0.0118338247     1     1    12     6
 0.2156333017     1     1    12     7
 0.5813582368     1     1    12    12
 0.0000154111     1     1    12    13
 0.0227885801     1     1    12    19
 0.2156005203     1     1    13     6
 0.0122282263     1     1    13     7
 0.0000154111     1     1    13    12
 0.5813573986     1     1    13    13
 -0.0234166774     1     1    13    19
 0.0132195405     1     1    14     2
 0.1067827270     1     1    14     4
 0.2162420090     1     1    14    10
 0.6462848329     1     1    14    14
 0.0324751242     1     1    14    18
 0.1431530653     1     1    15     3
 0.0859110082     1     1    15     5
 0.0099107752     1     1    15    11
 0.5312221090     1     1    15    15
 -0.2345555423     1     1    16     8
 0.0081541733     1     1    16     9
 0.5755446430     1     1    16    16
 -0.0000134921     1     1    16    17
 -0.0080847638     1     1    17     8
 -0.2345101838     1     1    17     9
 -0.0000134921     1     1    17    16
 0.5755256452     1     1    17    17
 0.0020143167     1     1    18     2
 -0.1270566778     1     1    18     4
 0.1366487728     1     1    18    10
 0.0324751242     1     1    18    14
 0.5120233252     1     1    18    18
 0.0046450847     1     1    19     6
 -0.0040418269     1     1    19     7
 0.0227885801     1     1    19    12
 -0.0234166774     1     1    19    13
 0.5959749339     1     1    19    19
 -0.4030632904     1     2     2     1
 -0.0050599537     1     2     2     3
 0.0114154321     1     2     2     5
 -0.0095158824     1     2     2    11
 0.0017808773     1     2     2    15
 -0.1948706788     1     2     3     4
 0.1601817775     1     2     3    10
 0.0773771946     1     2     3    14
 0.1303898433     1     2     3    18
 -0.0043834277     1     2     4     1
 -0.1949867099     1     2     4     3
 -0.2236439628     1     2     4     5
 0.0609672098     1     2     4    11
 -0.1485327130     1     2     4    15
 -0.2238909761     1     2     5     4
 -0.1321981329     1     2     5    10
 -0.2360262645     1     2     5    14
 0.0027920710     1     2     5    18
 -0.0826742381     1     2     6     8
 0.2346590725     1     2     6     9
 0.0635060173     1     2     6    16
 -0.1615574274     1     2     6    17
 0.2343852596     1     2     7     8
 0.0840059962     1     2     7     9
 -0.1614323859     1     2     7    16
 -0.0640228360     1     2     7    17
 -0.0825827398     1     2     8     6
 0.2341294377     1     2     8     7
 0.1656830874     1     2     8    12
 -0.0486953770     1     2     8    13
 0.0950729519     1     2     8    19
 0.2344035120     1     2     9     6
 0.0839157689     1     2     9     7
 0.0486350423     1     2     9    12
 0.1656671328     1     2     9    13
 -0.0535910772     1     2     9    19
 -0.0068669803     1     2    10     1
 0.1600184234     1     2    10     3
 -0.1318225118     1     2    10     5
 0.0156112722     1     2    10    11
 0.0559716371     1     2    10    15
 0.0611966269     1     2    11     4
 0.0159284889     1     2    11    10
 0.2053661151     1     2    11    14
 0.0215243197     1     2    11    18
 0.1659703495     1     2    12     8
 0.0487137062     1     2    12     9
 -0.2418504111     1     2    12    16
 -0.0802203496     1     2    12    17
 -0.0487846492     1     2    13     8
 0.1659515898     1     2    13     9
 0.0802370197     1     2    13    16
 -0.2418453798     1     2    13    17
 -0.0132195405     1     2    14     1
 0.0770689381     1     2    14     3
 -0.2352876402     1     2    14     5
 0.2047389686     1     2    14    11
 -0.1084945295     1     2    14    15
 -0.1485760143     1     2    15     4
 0.0559180550     1     2    15    10
 -0.1086048392     1     2    15    14
 0.1619463049     1     2    15    18
 0.0633841396     1     2    16     6
 -0.1611294612     1     2    16     7
 -0.2415097201     1     2    16    12
 0.0801187793     1     2    16    13
 -0.0388359820     1     2    16    19
 -0.1612557177     1     2    17     6
 -0.0639059807     1     2    17     7
 -0.0801137160     1     2    17    12
 -0.2415081919     1     2    17    13
 0.0201534338     1     2    17    19
 -0.0020143167     1     2    18     1
 0.1303396228     1     2    18     3
 0.0028981368     1     2    18     5
 0.0214380862     1     2    18    11
 0.1619570415     1     2    18    15
 0.0950797213     1     2    19     8
 -0.0535948929     1     2    19     9
 -0.0388439943     1     2    19    16
 0.0201575916     1     2    19    17
 0.0050599537     1     3     2     2
 0.0001140410     1     3     2     4
 0.0001636268     1     3     2    10
 0.0003168583     1     3     2    14
 0.0000483328     1     3     2    18
 -0.7133541659     1     3     3     1
 0.0155944552     1     3     3     5
 -0.0152865779     1     3     3    11
 0.0051803309     1     3     3    15
 0.1949867099     1     3     4     2
 -0.0062722062     1     3     4     4
 -0.0057701012     1     3     4    10
 -0.0118036933     1     3     4    14
 0.0002910964     1     3     4    18
 0.0723674583     1     3     5     1
 -0.0230625081     1     3     5     5
 0.0174056344     1     3     5    11
 -0.0099308422     1     3     5    15
 -0.0163021474     1     3     6     6
 -0.0000871362     1     3     6     7
 0.0012535216     1     3     6    12
 -0.0219106680     1     3     6    13
 0.0066392488     1     3     6    19
 -0.0000871362     1     3     7     6
 -0.0163264693     1     3     7     7
 -0.0219054997     1     3     7    12
 -0.0011913396     1     3     7    13
 -0.0057770086     1     3     7    19
 -0.0156176231     1     3     8     8
 0.0000136206     1     3     8     9
 0.0187727602     1     3     8    16
 0.0006245164     1     3     8    17
 0.0000136206     1     3     9     8
 -0.0156011373     1     3     9     9
 -0.0006741766     1     3     9    16
 0.0187403077     1     3     9    17
 -0.1600184234     1     3    10     2
 -0.0080994285     1     3    10     4
 -0.0035007902     1     3    10    10
 -0.0110225415     1     3    10    14
 0.0018247339     1     3    10    18
 -0.0543010642     1     3    11     1
 0.0126807901     1     3    11     5
 -0.0111452616     1     3    11    11
 0.0078059948     1     3    11    15
 0.0007282589     1     3    12     6
 -0.0133460185     1     3    12     7
 -0.0166810423     1     3    12    12
 0.0000228815     1     3    12    13
 -0.0042077097     1     3    12    19
 -0.0133433009     1     3    13     6
 -0.0007609559     1     3    13     7
 0.0000228815     1     3    13    12
 -0.0166822867     1     3    13    13
 0.0043236824     1     3    13    19
 -0.0770689381     1     3    14     2
 -0.0133646678     1     3    14     4
 -0.0062345998     1     3    14    10
 -0.0226145124     1     3    14    14
 0.0030363007     1     3    14    18
 -0.1431530653     1     3    15     1
 -0.0022904055     1     3    15     5
 0.0020043826     1     3    15    11
 -0.0008237836     1     3    15    15
 0.0141522020     1     3    16     8
 -0.0004952442     1     3    16     9
 -0.0177900359     1     3    16    16
 0.0000069570     1     3    16    17
 0.0004844019     1     3    17     8
 0.0141451167     1     3    17     9
 0.0000069570     1     3    17    16
 -0.0177802398     1     3    17    17
 -0.1303396228     1     3    18     2
 -0.0018042758     1     3    18     4
 -0.0001963127     1     3    18    10
 -0.0022764404     1     3    18    14
 0.0009112567     1     3    18    18
 0.0022060105     1     3    19     6
 -0.0019195156     1     3    19     7
 -0.0007183644     1     3    19    12
 0.0007381639     1     3    19    13
 -0.0010870251     1     3    19    19
 -0.0043834277     1     4     2     1
 -0.0001140410     1     4     2     3
 0.0002501176     1     4     2     5
 -0.0002245548     1     4     2    11
 0.0000385602     1     4     2    15
 0.1948706788     1     4     3     2
 0.0023987932     1     4     3    10
 0.0015646353     1     4     3    14
 0.0020984576     1     4     3    18
 -0.6240840477     1     4     4     1
 0.0062722062     1     4     4     3
 -0.0029160112     1     4     4     5
 0.0064956863     1     4     4    11
 0.0008656548     1     4     4    15
 0.2238909761     1     4     5     2
 -0.0152535436     1     4     5    10
 -0.0248783729     1     4     5    14
 -0.0083089498     1     4     5    18
 -0.0048444578     1     4     6     8
 0.0137066115     1     4     6     9
 0.0070701480     1     4     6    16
 -0.0180287656     1     4     6    17
 0.0136965169     1     4     7     8
 0.0048935553     1     4     7     9
 -0.0180074295     1     4     7    16
 -0.0071583337     1     4     7    17
 -0.0054750092     1     4     8     6
 0.0151589138     1     4     8     7
 0.0209738977     1     4     8    12
 -0.0062759928     1     4     8    13
 0.0026942771     1     4     8    19
 0.0151198236     1     4     9     6
 0.0052848842     1     4     9     7
 0.0060263085     1     4     9    12
 0.0209078726     1     4     9    13
 -0.0015187202     1     4     9    19
 0.0890102652     1     4    10     1
 0.0080994285     1     4    10     3
 -0.0105621812     1     4    10     5
 0.0118888522     1     4    10    11
 0.0002860124     1     4    10    15
 -0.0611966269     1     4    11     2
 0.0097920389     1     4    11    10
 0.0109377980     1     4    11    14
 0.0053593966     1     4    11    18
 0.0133363327     1     4    12     8
 0.0039127595     1     4    12     9
 -0.0156775083     1     4    12    16
 -0.0051931675     1     4    12    17
 -0.0039213686     1     4    13     8
 0.0133340560     1     4    13     9
 0.0052069179     1     4    13    16
 -0.0156733582     1     4    13    17
 -0.1067827270     1     4    14     1
 0.0133646678     1     4    14     3
 -0.0151648263     1     4    14     5
 0.0149056985     1     4    14    11
 0.0031019682     1     4    14    15
 0.1485760143     1     4    15     2
 -0.0038953192     1     4    15    10
 -0.0052880708     1     4    15    14
 -0.0023525707     1     4    15    18
 0.0050518560     1     4    16     6
 -0.0128258351     1     4    16     7
 -0.0159687020     1     4    16    12
 0.0053257075     1     4    16    13
 -0.0028503609     1     4    16    19
 -0.0128324045     1     4    17     6
 -0.0050790080     1     4    17     7
 -0.0052626364     1     4    17    12
 -0.0159496659     1     4    17    13
 0.0014791582     1     4    17    19
 0.1270566778     1     4    18     1
 0.0018042758     1     4    18     3
 -0.0030018621     1     4    18     5
 0.0023372756     1     4    18    11
 -0.0002217130     1     4    18    15
 0.0041663420     1     4    19     8
 -0.0023484993     1     4    19     9
 -0.0069245465     1     4    19    16
 0.0035934044     1     4    19    17
 -0.0114154321     1     5     2     2
 -0.0002501176     1     5     2     4
 -0.0003845828     1     5     2    10
 -0.0007480814     1     5     2    14
 -0.0001083760     1     5     2    18
 0.0723674583     1     5     3     1
 -0.0155944552     1     5     3     3
 0.0047600711     1     5     3    11
 -0.0076156823     1     5     3    15
 0.2236439628     1     5     4     2
 0.0029160112     1     5     4     4
 -0.0046774875     1     5     4    10
 -0.0097531562     1     5     4    14
 -0.0053155339     1     5     4    18
 -0.6539030387     1     5     5     1
 0.0230625081     1     5     5     3
 0.0069271707     1     5     5    11
 0.0136227431     1     5     5    15
 -0.0113250935     1     5     6     6
 0.0000730693     1     5     6     7
 0.0004450220     1     5     6    12
 -0.0087062830     1     5     6    13
 -0.0056342146     1     5     6    19
 0.0000730693     1     5     7     6
 -0.0113046982     1     5     7     7
 -0.0087130923     1     5     7    12
 -0.0005269469     1     5     7    13
 0.0049024982     1     5     7    19
 -0.0087665288     1     5     8     8
 0.0000238381     1     5     8     9
 0.0106638082     1     5     8    16
 0.0003483568     1     5     8    17
 0.0000238381     1     5     9     8
 -0.0087376761     1     5     9     9
 -0.0003890787     1     5     9    16
 0.0106371967     1     5     9    17
 0.1318225118     1     5    10     2
 0.0105621812     1     5    10     4
 -0.0121702209     1     5    10    10
 -0.0102867792     1     5    10    14
 -0.0113070232     1     5    10    18
 0.1874112487     1     5    11     1
 -0.0126807901     1     5    11     3
 -0.0018609177     1     5    11    11
 -0.0137471823     1     5    11    15
 0.0003782383     1     5    12     6
 -0.0060177608     1     5    12     7
 -0.0087769529     1     5    12    12
 -0.0000005863     1     5    12    13
 0.0021379671     1     5    12    19
 -0.0060247863     1     5    13     6
 -0.0002937135     1     5    13     7
 -0.0000005863     1     5    13    12
 -0.0087769210     1     5    13    13
 -0.0021968937     1     5    13    19
 0.2352876402     1     5    14     2
 0.0151648263     1     5    14     4
 -0.0186379386     1     5    14    10
 -0.0097281924     1     5    14    14
 -0.0175859089     1     5    14    18
 -0.0859110082     1     5    15     1
 0.0022904055     1     5    15     3
 0.0001078820     1     5    15    11
 -0.0013550471     1     5    15    15
 0.0065239871     1     5    16     8
 -0.0002291913     1     5    16     9
 -0.0078975305     1     5    16    16
 0.0000026825     1     5    16    17
 0.0002223719     1     5    17     8
 0.0065195306     1     5    17     9
 0.0000026825     1     5    17    16
 -0.0078937533     1     5    17    17
 -0.0028981368     1     5    18     2
 0.0030018621     1     5    18     4
 -0.0042831996     1     5    18    10
 -0.0014074901     1     5    18    14
 -0.0055152499     1     5    18    18
 -0.0000399783     1     5    19     6
 0.0000347862     1     5    19     7
 -0.0051529953     1     5    19    12
 0.0052950218     1     5    19    13
 -0.0076950540     1     5    19    19
 -0.0000931123     1     6     2     8
 0.0002562114     1     6     2     9
 0.0001210826     1     6     2    16
 -0.0003011637     1     6     2    17
 0.0005001625     1     6     3    12
 -0.0087183396     1     6     3    13
 0.0044093495     1     6     3    19
 0.0006205512     1     6     4     8
 -0.0013920116     1     6     4     9
 0.0020504224     1     6     4    16
 -0.0052850551     1     6     4    17
 0.0001249530     1     6     5    12
 -0.0026556715     1     6     5    13
 -0.0055499605     1     6     5    19
 -0.6214720491     1     6     6     1
 0.0163021474     1     6     6     3
 0.0113250935     1     6     6     5
 -0.0082754859     1     6     6    11
 0.0087094514     1     6     6    15
 0.0000803967     1     6     7     1
 0.0000871362     1     6     7     3
 -0.0000730693     1     6     7     5
 0.0000832704     1     6     7    11
 0.0000222776     1     6     7    15
 0.0825827398     1     6     8     2
 0.0054750092     1     6     8     4
 -0.0042069576     1     6     8    10
 -0.0017290676     1     6     8    14
 -0.0030075387     1     6     8    18
 -0.2344035120     1     6     9     2
 -0.0151198236     1     6     9     4
 0.0119958455     1     6     9    10
 0.0050708668     1     6     9    14
 0.0085403897     1     6     9    18
 -0.0000961389     1     6    10     8
 0.0003828859     1     6    10     9
 -0.0006688332     1     6    10    16
 0.0015597548     1     6    10    17
 -0.0002078354     1     6    11    12
 0.0031302267     1     6    11    13
 0.0005225647     1     6    11    19
 0.0118338247     1     6    12     1
 -0.0007282589     1     6    12     3
 -0.0003782383     1     6    12     5
 0.0001803195     1     6    12    11
 -0.0008376945     1     6    12    15
 -0.2156005203     1     6    13     1
 0.0133433009     1     6    13     3
 0.0060247863     1     6    13     5
 -0.0028445920     1     6    13    11
 0.0154336611     1     6    13    15
 0.0000162504     1     6    14     8
 0.0000583033     1     6    14     9
 -0.0007452972     1     6    14    16
 0.0017721446     1     6    14    17
 -0.0003229642     1     6    15    12
 0.0051394400     1     6    15    13
 -0.0015507482     1     6    15    19
 -0.0633841396     1     6    16     2
 -0.0050518560     1     6    16     4
 0.0038830461     1     6    16    10
 -0.0003368144     1     6    16    14
 0.0054139141     1     6    16    18
 0.1612557177     1     6    17     2
 0.0128324045     1     6    17     4
 -0.0099366114     1     6    17    10
 0.0007768572     1     6    17    14
 -0.0138046904     1     6    17    18
 0.0002763350     1     6    18     8
 -0.0007578082     1     6    18     9
 0.0011848241     1     6    18    16
 -0.0030431813     1     6    18    17
 -0.0046450847     1     6    19     1
 -0.0022060105     1     6    19     3
 0.0000399783     1     6    19     5
 -0.0050958575     1     6    19    11
 -0.0021545215     1     6    19    15
 0.0002570026     1     7     2     8
 0.0000892641     1     7     2     9
 -0.0003021229     1     7     2    16
 -0.0001171182     1     7     2    17
 -0.0087160524     1     7     3    12
 -0.0004726444     1     7     3    13
 -0.0038367066     1     7     3    19
 -0.0014402512     1     7     4     8
 -0.0003859256     1     7     4     9
 -0.0052690122     1     7     4    16
 -0.0021167309     1     7     4    17
 -0.0026595508     1     7     5    12
 -0.0001716266     1     7     5    13
 0.0048291863     1     7     5    19
 0.0000803967     1     7     6     1
 0.0000871362     1     7     6     3
 -0.0000730693     1     7     6     5
 0.0000832704     1     7     6    11
 0.0000222776     1     7     6    15
 -0.6214496085     1     7     7     1
 0.0163264693     1     7     7     3
 0.0113046982     1     7     7     5
 -0.0082522432     1     7     7    11
 0.0087156697     1     7     7    15
 -0.2341294377     1     7     8     2
 -0.0151589138     1     7     8     4
 0.0119744233     1     7     8    10
 0.0050429224     1     7     8    14
 0.0085298953     1     7     8    18
 -0.0839157689     1     7     9     2
 -0.0052848842     1     7     9     4
 0.0043111499     1     7     9    10
 0.0018649824     1     7     9    14
 0.0030585811     1     7     9    18
 0.0003675867     1     7    10     8
 0.0001705501     1     7    10     9
 0.0015831565     1     7    10    16
 0.0005721096     1     7    10    17
 0.0031246863     1     7    11    12
 0.0001411771     1     7    11    13
 -0.0004546991     1     7    11    19
 -0.2156333017     1     7    12     1
 0.0133460185     1     7    12     3
 0.0060177608     1     7    12     5
 -0.0028409851     1     7    12    11
 0.0154375816     1     7    12    15
 -0.0122282263     1     7    13     1
 0.0007609559     1     7    13     3
 0.0002937135     1     7    13     5
 -0.0001369252     1     7    13    11
 0.0008848639     1     7    13    15
 0.0000441365     1     7    14     8
 0.0000526535     1     7    14     9
 0.0017922797     1     7    14    16
 0.0006620752     1     7    14    17
 0.0051333955     1     7    15    12
 0.0002502410     1     7    15    13
 0.0013493523     1     7    15    19
 0.1611294612     1     7    16     2
 0.0128258351     1     7    16     4
 -0.0099188059     1     7    16    10
 0.0007901439     1     7    16    14
 -0.0137884753     1     7    16    18
 0.0639059807     1     7    17     2
 0.0050790080     1     7    17     4
 -0.0039566395     1     7    17    10
 0.0002818982     1     7    17    14
 -0.0054809335     1     7    17    18
 -0.0007605057     1     7    18     8
 -0.0002632151     1     7    18     9
 -0.0030357867     1     7    18    16
 -0.0012153872     1     7    18    17
 0.0040418269     1     7    19     1
 0.0019195156     1     7    19     3
 -0.0000347862     1     7    19     5
 0.0044340578     1     7    19    11
 0.0018747135     1     7    19    15
 0.0000931123     1     8     2     6
 -0.0002570026     1     8     2     7
 -0.0002849549     1     8     2    12
 0.0000892075     1     8     2    13
 -0.0000047010     1     8     2    19
 0.0044834135     1     8     3    16
 0.0001155858     1     8     3    17
 -0.0006205512     1     8     4     6
 0.0014402512     1     8     4     7
 0.0073349396     1     8     4    12
 -0.0023119941     1     8     4    13
 -0.0015463749     1     8     4    19
 0.0040003937     1     8     5    16
 0.0001255117     1     8     5    17
 0.0826742381     1     8     6     2
 0.0048444578     1     8     6     4
 -0.0041144349     1     8     6    10
 -0.0017663410     1     8     6    14
 -0.0032911729     1     8     6    18
 -0.2343852596     1     8     7     2
 -0.0136965169     1     8     7     4
 0.0116603250     1     8     7    10
 0.0051114726     1     8     7    14
 0.0093435543     1     8     7    18
 -0.6073174252     1     8     8     1
 0.0156176231     1     8     8     3
 0.0087665288     1     8     8     5
 -0.0035646866     1     8     8    11
 0.0101889781     1     8     8    15
 -0.0000207752     1     8     9     1
 -0.0000136206     1     8     9     3
 -0.0000238381     1     8     9     5
 0.0000170478     1     8     9    11
 0.0000008728     1     8     9    15
 0.0000961389     1     8    10     6
 -0.0003675867     1     8    10     7
 -0.0028345462     1     8    10    12
 0.0008539508     1     8    10    13
 -0.0037248961     1     8    10    19
 -0.0005374885     1     8    11    16
 -0.0000211081     1     8    11    17
 -0.1659703495     1     8    12     2
 -0.0133363327     1     8    12     4
 0.0098243506     1     8    12    10
 -0.0001389994     1     8    12    14
 0.0131348723     1     8    12    18
 0.0487846492     1     8    13     2
 0.0039213686     1     8    13     4
 -0.0028899810     1     8    13    10
 0.0000433431     1     8    13    14
 -0.0038648055     1     8    13    18
 -0.0000162504     1     8    14     6
 -0.0000441365     1     8    14     7
 -0.0013772928     1     8    14    12
 0.0004217995     1     8    14    13
 -0.0042135211     1     8    14    19
 -0.0013401668     1     8    15    16
 -0.0000407712     1     8    15    17
 0.2345555423     1     8    16     1
 -0.0141522020     1     8    16     3
 -0.0065239871     1     8    16     5
 0.0041418857     1     8    16    11
 -0.0140827598     1     8    16    15
 0.0080847638     1     8    17     1
 -0.0004844019     1     8    17     3
 -0.0002223719     1     8    17     5
 0.0001354430     1     8    17    11
 -0.0004811160     1     8    17    15
 -0.0002763350     1     8    18     6
 0.0007605057     1     8    18     7
 0.0025530256     1     8    18    12
 -0.0007545873     1     8    18    13
 -0.0007729534     1     8    18    19
 -0.0950797213     1     8    19     2
 -0.0041663420     1     8    19     4
 0.0032029165     1     8    19    10
 0.0040970989     1     8    19    14
 0.0029592271     1     8    19    18
 -0.0002562114     1     9     2     6
 -0.0000892641     1     9     2     7
 -0.0000772699     1     9     2    12
 -0.0002817981     1     9     2    13
 0.0000026499     1     9     2    19
 -0.0001930901     1     9     3    16
 0.0044327650     1     9     3    17
 0.0013920116     1     9     4     6
 0.0003859256     1     9     4     7
 0.0019706012     1     9     4    12
 0.0072446637     1     9     4    13
 0.0008716664     1     9     4    19
 -0.0001508992     1     9     5    16
 0.0039838032     1     9     5    17
 -0.2346590725     1     9     6     2
 -0.0137066115     1     9     6     4
 0.0116732761     1     9     6    10
 0.0051336885     1     9     6    14
 0.0093564925     1     9     6    18
 -0.0840059962     1     9     7     2
 -0.0048935553     1     9     7     4
 0.0041774254     1     9     7    10
 0.0018743933     1     9     7    14
 0.0033541013     1     9     7    18
 -0.0000207752     1     9     8     1
 -0.0000136206     1     9     8     3
 -0.0000238381     1     9     8     5
 0.0000170478     1     9     8    11
 0.0000008728     1     9     8    15
 -0.6073425706     1     9     9     1
 0.0156011373     1     9     9     3
 0.0087376761     1     9     9     5
 -0.0035440525     1     9     9    11
 0.0101900344     1     9     9    15
 -0.0003828859     1     9    10     6
 -0.0001705501     1     9    10     7
 -0.0008076882     1     9    10    12
 -0.0028223128     1     9    10    13
 0.0020996634     1     9    10    19
 0.0000162179     1     9    11    16
 -0.0005406842     1     9    11    17
 -0.0487137062     1     9    12     2
 -0.0039127595     1     9    12     4
 0.0028808998     1     9    12    10
 -0.0000378926     1     9    12    14
 0.0038505291     1     9    12    18
 -0.1659515898     1     9    13     2
 -0.0133340560     1     9    13     4
 0.0098219492     1     9    13    10
 -0.0001375580     1     9    13    14
 0.0131310971     1     9    13    18
 -0.0000583033     1     9    14     6
 -0.0000526535     1     9    14     7
 -0.0003844264     1     9    14    12
 -0.0013674102     1     9    14    13
 0.0023750933     1     9    14    19
 0.0000517724     1     9    15    16
 -0.0013329776     1     9    15    17
 -0.0081541733     1     9    16     1
 0.0004952442     1     9    16     3
 0.0002291913     1     9    16     5
 -0.0001509874     1     9    16    11
 0.0004936829     1     9    16    15
 0.2345101838     1     9    17     1
 -0.0141451167     1     9    17     3
 -0.0065195306     1     9    17     5
 0.0041317276     1     9    17    11
 -0.0140745474     1     9    17    15
 0.0007578082     1     9    18     6
 0.0002632151     1     9    18     7
 0.0007444725     1     9    18    12
 0.0025503510     1     9    18    13
 0.0004357012     1     9    18    19
 0.0535948929     1     9    19     2
 0.0023484993     1     9    19     4
 -0.0018054319     1     9    19    10
 -0.0023094681     1     9    19    14
 -0.0016680682     1     9    19    18
 -0.0068669803     1    10     2     1
 -0.0001636268     1    10     2     3
 0.0003845828     1    10     2     5
 -0.0003155631     1    10     2    11
 0.0000547369     1    10     2    15
 -0.1601817775     1    10     3     2
 -0.0023987932     1    10     3     4
 -0.0047213028     1    10     3    14
 0.0020230054     1    10     3    18
 0.0890102652     1    10     4     1
 0.0057701012     1    10     4     3
 0.0046774875     1    10     4     5
 0.0020263996     1    10     4    11
 0.0042032811     1    10     4    15
 0.1321981329     1    10     5     2
 0.0152535436     1    10     5     4
 0.0084538441     1    10     5    14
 -0.0070913668     1    10     5    18
 0.0041144349     1    10     6     8
 -0.0116732761     1    10     6     9
 -0.0045424970     1    10     6    16
 0.0114372027     1    10     6    17
 -0.0116603250     1    10     7     8
 -0.0041774254     1    10     7     9
 0.0114489728     1    10     7    16
 0.0044938491     1    10     7    17
 0.0042069576     1    10     8     6
 -0.0119744233     1    10     8     7
 -0.0126858852     1    10     8    12
 0.0037409320     1    10     8    13
 -0.0069392443     1    10     8    19
 -0.0119958455     1    10     9     6
 -0.0043111499     1    10     9     7
 -0.0037092833     1    10     9    12
 -0.0126775162     1    10     9    13
 0.0039115392     1    10     9    19
 -0.5456551233     1    10    10     1
 0.0035007902     1    10    10     3
 0.0121702209     1    10    10     5
 -0.0057057594     1    10    10    11
 0.0064470059     1    10    10    15
 -0.0159284889     1    10    11     2
 -0.0097920389     1    10    11     4
 -0.0146625335     1    10    11    14
 0.0042874294     1    10    11    18
 -0.0098243506     1    10    12     8
 -0.0028808998     1    10    12     9
 0.0135130423     1    10    12    16
 0.0044790918     1    10    12    17
 0.0028899810     1    10    13     8
 -0.0098219492     1    10    13     9
 -0.0044856669     1    10    13    16
 0.0135110579     1    10    13    17
 -0.2162420090     1    10    14     1
 0.0062345998     1    10    14     3
 0.0186379386     1    10    14     5
 -0.0141640764     1    10    14    11
 0.0148435916     1    10    14    15
 -0.0559180550     1    10    15     2