&FCI NORB=  6,NELEC=  6,MS2=0,
 ORBSYM=1,1,1,1,1,1
 ISYM=1,
&END
 0.1337624309     1     1     2     2
 0.1454035179     1     1     3     3
 -0.0156760264     1     1     3     6
 0.1530207592     1     1     4     4
 0.1358502121     1     1     5     5
 -0.0156760264     1     1     6     3
 0.1380267389     1     1     6     6
 -0.1337624309     1     2     2     1
 -0.0068206832     1     2     2     5
 0.0111741541     1     2     3     4
 0.0030776055     1     2     4     3
 -0.0141122415     1     2     4     6
 -0.0098471864     1     2     6     4
 0.0082172071     1     3     2     4
 -0.1454035179     1     3     3     1
 0.0117635029     1     3     3     5
 -0.0030776055     1     3     4     2
 0.0073945276     1     3     5     6
 0.0156760264     1     3     6     1
 0.0086361362     1     3     6     5
 -0.0082172071     1     4     2     3
 -0.0039511374     1     4     2     6
 -0.0111741541     1     4     3     2
 -0.1530207592     1     4     4     1
 0.0025794412     1     4     4     5
 0.0098471864     1     4     6     2
 0.0068206832     1     5     2     2
 -0.0117635029     1     5     3     3
 -0.0017995454     1     5     3     6
 -0.0025794412     1     5     4     4
 -0.1358502121     1     5     5     1
 -0.0086361362     1     5     6     3
 -0.0033519699     1     5     6     6
 0.0039511374     1     6     2     4
 0.0156760264     1     6     3     1
 0.0017995454     1     6     3     5
 0.0141122415     1     6     4     2
 -0.0073945276     1     6     5     3
 -0.1380267389     1     6     6     1
 0.0033519699     1     6     6     5
 -0.1337624309     2     1     1     2
 0.0030776055     2     1     3     4
 0.0111741541     2     1     4     3
 -0.0098471864     2     1     4     6
 -0.0068206832     2     1     5     2
 -0.0141122415     2     1     6     4
 0.1337624309     2     2     1     1
 0.0068206832     2     2     1     5
 0.1517797261     2     2     3     3
 0.0003091905     2     2     3     6
 0.1328679612     2     2     4     4
 0.0068206832     2     2     5     1
 0.1351993323     2     2     5     5
 0.0003091905     2     2     6     3
 0.1330994426     2     2     6     6
 -0.0082172071     2     3     1     4
 -0.1517797261     2     3     3     2
 -0.0111741541     2     3     4     1
 0.0205931995     2     3     4     5
 -0.0199520286     2     3     5     4
 -0.0003091905     2     3     6     2
 0.0082172071     2     4     1     3
 0.0039511374     2     4     1     6
 -0.0030776055     2     4     3     1
 0.0404054410     2     4     3     5
 -0.1328679612     2     4     4     2
 0.0199520286     2     4     5     3
 0.0192073862     2     4     5     6
 0.0141122415     2     4     6     1
 0.0004913820     2     4     6     5
 -0.0068206832     2     5     1     2
 -0.0404054410     2     5     3     4
 -0.0205931995     2     5     4     3
 0.0186924773     2     5     4     6
 -0.1351993323     2     5     5     2
 -0.0004913820     2     5     6     4
 -0.0039511374     2     6     1     4
 -0.0003091905     2     6     3     2
 0.0098471864     2     6     4     1
 -0.0186924773     2     6     4     5
 -0.0192073862     2     6     5     4
 -0.1330994426     2     6     6     2
 -0.1454035179     3     1     1     3
 0.0156760264     3     1     1     6
 -0.0030776055     3     1     2     4
 0.0082172071     3     1     4     2
 0.0117635029     3     1     5     3
 0.0086361362     3     1     5     6
 0.0073945276     3     1     6     5
 -0.0111741541     3     2     1     4
 -0.1517797261     3     2     2     3
 -0.0003091905     3     2     2     6
 -0.0082172071     3     2     4     1
 -0.0199520286     3     2     4     5
 0.0205931995     3     2     5     4
 0.1454035179     3     3     1     1
 -0.0117635029     3     3     1     5
 0.1517797261     3     3     2     2
 0.1321135491     3     3     4     4
 -0.0117635029     3     3     5     1
 0.1306945573     3     3     5     5
 0.1330444552     3     3     6     6
 0.0111741541     3     4     1     2
 0.0030776055     3     4     2     1
 -0.0404054410     3     4     2     5
 -0.1321135491     3     4     4     3
 -0.0218954407     3     4     4     6
 -0.0205931995     3     4     5     2
 0.0117635029     3     5     1     3
 0.0017995454     3     5     1     6
 0.0404054410     3     5     2     4
 0.0199520286     3     5     4     2
 -0.1306945573     3     5     5     3
 0.0215681103     3     5     5     6
 -0.0073945276     3     5     6     1
 -0.0156760264     3     6     1     1
 -0.0017995454     3     6     1     5
 0.0003091905     3     6     2     2
 0.0218954407     3     6     4     4
 -0.0086361362     3     6     5     1
 -0.0215681103     3     6     5     5
 -0.1330444552     3     6     6     3
 -0.1530207592     4     1     1     4
 -0.0111741541     4     1     2     3
 0.0098471864     4     1     2     6
 -0.0082172071     4     1     3     2
 0.0025794412     4     1     5     4
 -0.0039511374     4     1     6     2
 -0.0030776055     4     2     1     3
 0.0141122415     4     2     1     6
 -0.1328679612     4     2     2     4
 0.0082172071     4     2     3     1
 0.0199520286     4     2     3     5
 0.0404054410     4     2     5     3
 0.0004913820     4     2     5     6
 0.0039511374     4     2     6     1
 0.0192073862     4     2     6     5
 0.0030776055     4     3     1     2
 0.0111741541     4     3     2     1
 -0.0205931995     4     3     2     5
 -0.1321135491     4     3     3     4
 -0.0404054410     4     3     5     2
 -0.0218954407     4     3     6     4
 0.1530207592     4     4     1     1
 -0.0025794412     4     4     1     5
 0.1328679612     4     4     2     2
 0.1321135491     4     4     3     3
 0.0218954407     4     4     3     6
 -0.0025794412     4     4     5     1
 0.1432058482     4     4     5     5
 0.0218954407     4     4     6     3
 0.1070279238     4     4     6     6
 0.0025794412     4     5     1     4
 0.0205931995     4     5     2     3
 -0.0186924773     4     5     2     6
 -0.0199520286     4     5     3     2
 -0.1432058482     4     5     5     4
 -0.0192073862     4     5     6     2
 -0.0141122415     4     6     1     2
 -0.0098471864     4     6     2     1
 0.0186924773     4     6     2     5
 -0.0218954407     4     6     3     4
 -0.0004913820     4     6     5     2
 -0.1070279238     4     6     6     4
 -0.1358502121     5     1     1     5
 0.0068206832     5     1     2     2
 -0.0117635029     5     1     3     3
 -0.0086361362     5     1     3     6
 -0.0025794412     5     1     4     4
 -0.0017995454     5     1     6     3
 -0.0033519699     5     1     6     6
 -0.0068206832     5     2     2     1
 -0.1351993323     5     2     2     5
 -0.0205931995     5     2     3     4
 -0.0404054410     5     2     4     3
 -0.0004913820     5     2     4     6
 0.0186924773     5     2     6     4
 -0.0073945276     5     3     1     6
 0.0199520286     5     3     2     4
 0.0117635029     5     3     3     1
 -0.1306945573     5     3     3     5
 0.0404054410     5     3     4     2
 0.0017995454     5     3     6     1
 0.0215681103     5     3     6     5
 -0.0199520286     5     4     2     3
 -0.0192073862     5     4     2     6
 0.0205931995     5     4     3     2
 0.0025794412     5     4     4     1
 -0.1432058482     5     4     4     5
 -0.0186924773     5     4     6     2
 0.1358502121     5     5     1     1
 0.1351993323     5     5     2     2
 0.1306945573     5     5     3     3
 -0.0215681103     5     5     3     6
 0.1432058482     5     5     4     4
 -0.0215681103     5     5     6     3
 0.1059285610     5     5     6     6
 0.0073945276     5     6     1     3
 0.0192073862     5     6     2     4
 0.0086361362     5     6     3     1
 0.0215681103     5     6     3     5
 0.0004913820     5     6     4     2
 0.0033519699     5     6     6     1
 -0.1059285610     5     6     6     5
 0.0156760264     6     1     1     3
 -0.1380267389     6     1     1     6
 0.0141122415     6     1     2     4
 -0.0073945276     6     1     3     5
 0.0039511374     6     1     4     2
 0.0017995454     6     1     5     3
 0.0033519699     6     1     5     6
 0.0098471864     6     2     1     4
 -0.0003091905     6     2     2     3
 -0.1330994426     6     2     2     6
 -0.0039511374     6     2     4     1
 -0.0192073862     6     2     4     5
 -0.0186924773     6     2     5     4
 -0.0156760264     6     3     1     1
 -0.0086361362     6     3     1     5
 0.0003091905     6     3     2     2
 -0.1330444552     6     3     3     6
 0.0218954407     6     3     4     4
 -0.0017995454     6     3     5     1
 -0.0215681103     6     3     5     5
 -0.0098471864     6     4     1     2
 -0.0141122415     6     4     2     1
 -0.0004913820     6     4     2     5
 -0.0218954407     6     4     4     3
 -0.1070279238     6     4     4     6
 0.0186924773     6     4     5     2
 0.0086361362     6     5     1     3
 0.0033519699     6     5     1     6
 0.0004913820     6     5     2     4
 0.0073945276     6     5     3     1
 0.0192073862     6     5     4     2
 0.0215681103     6     5     5     3
 -0.1059285610     6     5     5     6
 0.1380267389     6     6     1     1
 -0.0033519699     6     6     1     5
 0.1330994426     6     6     2     2
 0.1330444552     6     6     3     3
 0.1070279238     6     6     4     4
 -0.0033519699     6     6     5     1
 0.1059285610     6     6     5     5
0.0 0 0 0 0
 0.1337624309     1     1     2     2
 0.1454035179     1     1     3     3
 -0.0156760264     1     1     3     6
 0.1530207592     1     1     4     4
 0.1358502121     1     1     5     5
 -0.0156760264     1     1     6     3
 0.1380267389     1     1     6     6
 -0.1337624309     1     2     2     1
 -0.0068206832     1     2     2     5
 0.0111741541     1     2     3     4
 0.0030776055     1     2     4     3
 -0.0141122415     1     2     4     6
 -0.0098471864     1     2     6     4
 0.0082172071     1     3     2     4
 -0.1454035179     1     3     3     1
 0.0117635029     1     3     3     5
 -0.0030776055     1     3     4     2
 0.0073945276     1     3     5     6
 0.0156760264     1     3     6     1
 0.0086361362     1     3     6     5
 -0.0082172071     1     4     2     3
 -0.0039511374     1     4     2     6
 -0.0111741541     1     4     3     2
 -0.1530207592     1     4     4     1
 0.0025794412     1     4     4     5
 0.0098471864     1     4     6     2
 0.0068206832     1     5     2     2
 -0.0117635029     1     5     3     3
 -0.0017995454     1     5     3     6
 -0.0025794412     1     5     4     4
 -0.1358502121     1     5     5     1
 -0.0086361362     1     5     6     3
 -0.0033519699     1     5     6     6
 0.0039511374     1     6     2     4
 0.0156760264     1     6     3     1
 0.0017995454     1     6     3     5
 0.0141122415     1     6     4     2
 -0.0073945276     1     6     5     3
 -0.1380267389     1     6     6     1
 0.0033519699     1     6     6     5
 -0.1337624309     2     1     1     2
 0.0030776055     2     1     3     4
 0.0111741541     2     1     4     3
 -0.0098471864     2     1     4     6
 -0.0068206832     2     1     5     2
 -0.0141122415     2     1     6     4
 0.1337624309     2     2     1     1
 0.0068206832     2     2     1     5
 0.1517797261     2     2     3     3
 0.0003091905     2     2     3     6
 0.1328679612     2     2     4     4
 0.0068206832     2     2     5     1
 0.1351993323     2     2     5     5
 0.0003091905     2     2     6     3
 0.1330994426     2     2     6     6
 -0.0082172071     2     3     1     4
 -0.1517797261     2     3     3     2
 -0.0111741541     2     3     4     1
 0.0205931995     2     3     4     5
 -0.0199520286     2     3     5     4
 -0.0003091905     2     3     6     2
 0.0082172071     2     4     1     3
 0.0039511374     2     4     1     6
 -0.0030776055     2     4     3     1
 0.0404054410     2     4     3     5
 -0.1328679612     2     4     4     2
 0.0199520286     2     4     5     3
 0.0192073862     2     4     5     6
 0.0141122415     2     4     6     1
 0.0004913820     2     4     6     5
 -0.0068206832     2     5     1     2
 -0.0404054410     2     5     3     4
 -0.0205931995     2     5     4     3
 0.0186924773     2     5     4     6
 -0.1351993323     2     5     5     2
 -0.0004913820     2     5     6     4
 -0.0039511374     2     6     1     4
 -0.0003091905     2     6     3     2
 0.0098471864     2     6     4     1
 -0.0186924773     2     6     4     5
 -0.0192073862     2     6     5     4
 -0.1330994426     2     6     6     2
 -0.1454035179     3     1     1     3
 0.0156760264     3     1     1     6
 -0.0030776055     3     1     2     4
 0.0082172071     3     1     4     2
 0.0117635029     3     1     5     3
 0.0086361362     3     1     5     6
 0.0073945276     3     1     6     5
 -0.0111741541     3     2     1     4
 -0.1517797261     3     2     2     3
 -0.0003091905     3     2     2     6
 -0.0082172071     3     2     4     1
 -0.0199520286     3     2     4     5
 0.0205931995     3     2     5     4
 0.1454035179     3     3     1     1
 -0.0117635029     3     3     1     5
 0.1517797261     3     3     2     2
 0.1321135491     3     3     4     4
 -0.0117635029     3     3     5     1
 0.1306945573     3     3     5     5
 0.1330444552     3     3     6     6
 0.0111741541     3     4     1     2
 0.0030776055     3     4     2     1
 -0.0404054410     3     4     2     5
 -0.1321135491     3     4     4     3
 -0.0218954407     3     4     4     6
 -0.0205931995     3     4     5     2
 0.0117635029     3     5     1     3
 0.0017995454     3     5     1     6
 0.0404054410     3     5     2     4
 0.0199520286     3     5     4     2
 -0.1306945573     3     5     5     3
 0.0215681103     3     5     5     6
 -0.0073945276     3     5     6     1
 -0.0156760264     3     6     1     1
 -0.0017995454     3     6     1     5
 0.0003091905     3     6     2     2
 0.0218954407     3     6     4     4
 -0.0086361362     3     6     5     1
 -0.0215681103     3     6     5     5
 -0.1330444552     3     6     6     3
 -0.1530207592     4     1     1     4
 -0.0111741541     4     1     2     3
 0.0098471864     4     1     2     6
 -0.0082172071     4     1     3     2
 0.0025794412     4     1     5     4
 -0.0039511374     4     1     6     2
 -0.0030776055     4     2     1     3
 0.0141122415     4     2     1     6
 -0.1328679612     4     2     2     4
 0.0082172071     4     2     3     1
 0.0199520286     4     2     3     5
 0.0404054410     4     2     5     3
 0.0004913820     4     2     5     6
 0.0039511374     4     2     6     1
 0.0192073862     4     2     6     5
 0.0030776055     4     3     1     2
 0.0111741541     4     3     2     1
 -0.0205931995     4     3     2     5
 -0.1321135491     4     3     3     4
 -0.0404054410     4     3     5     2
 -0.0218954407     4     3     6     4
 0.1530207592     4     4     1     1
 -0.0025794412     4     4     1     5
 0.1328679612     4     4     2     2
 0.1321135491     4     4     3     3
 0.0218954407     4     4     3     6
 -0.0025794412     4     4     5     1
 0.1432058482     4     4     5     5
 0.0218954407     4     4     6     3
 0.1070279238     4     4     6     6
 0.0025794412     4     5     1     4
 0.0205931995     4     5     2     3
 -0.0186924773     4     5     2     6
 -0.0199520286     4     5     3     2
 -0.1432058482     4     5     5     4
 -0.0192073862     4     5     6     2
 -0.0141122415     4     6     1     2
 -0.0098471864     4     6     2     1
 0.0186924773     4     6     2     5
 -0.0218954407     4     6     3     4
 -0.0004913820     4     6     5     2
 -0.1070279238     4     6     6     4
 -0.1358502121     5     1     1     5
 0.0068206832     5     1     2     2
 -0.0117635029     5     1     3     3
 -0.0086361362     5     1     3     6
 -0.0025794412     5     1     4     4
 -0.0017995454     5     1     6     3
 -0.0033519699     5     1     6     6
 -0.0068206832     5     2     2     1
 -0.1351993323     5     2     2     5
 -0.0205931995     5     2     3     4
 -0.0404054410     5     2     4     3
 -0.0004913820     5     2     4     6
 0.0186924773     5     2     6     4
 -0.0073945276     5     3     1     6
 0.0199520286     5     3     2     4
 0.0117635029     5     3     3     1
 -0.1306945573     5     3     3     5
 0.0404054410     5     3     4     2
 0.0017995454     5     3     6     1
 0.0215681103     5     3     6     5
 -0.0199520286     5     4     2     3
 -0.0192073862     5     4     2     6
 0.0205931995     5     4     3     2
 0.0025794412     5     4     4     1
 -0.1432058482     5     4     4     5
 -0.0186924773     5     4     6     2
 0.1358502121     5     5     1     1
 0.1351993323     5     5     2     2
 0.1306945573     5     5     3     3
 -0.0215681103     5     5     3     6
 0.1432058482     5     5     4     4
 -0.0215681103     5     5     6     3
 0.1059285610     5     5     6     6
 0.0073945276     5     6     1     3
 0.0192073862     5     6     2     4
 0.0086361362     5     6     3     1
 0.0215681103     5     6     3     5
 0.0004913820     5     6     4     2
 0.0033519699     5     6     6     1
 -0.1059285610     5     6     6     5
 0.0156760264     6     1     1     3
 -0.1380267389     6     1     1     6
 0.0141122415     6     1     2     4
 -0.0073945276     6     1     3     5
 0.0039511374     6     1     4     2
 0.0017995454     6     1     5     3
 0.0033519699     6     1     5     6
 0.0098471864     6     2     1     4
 -0.0003091905     6     2     2     3
 -0.1330994426     6     2     2     6
 -0.0039511374     6     2     4     1
 -0.0192073862     6     2     4     5
 -0.0186924773     6     2     5     4
 -0.0156760264     6     3     1     1
 -0.0086361362     6     3     1     5
 0.0003091905     6     3     2     2
 -0.1330444552     6     3     3     6
 0.0218954407     6     3     4     4
 -0.0017995454     6     3     5     1
 -0.0215681103     6     3     5     5
 -0.0098471864     6     4     1     2
 -0.0141122415     6     4     2     1
 -0.0004913820     6     4     2     5
 -0.0218954407     6     4     4     3
 -0.1070279238     6     4     4     6
 0.0186924773     6     4     5     2
 0.0086361362     6     5     1     3
 0.0033519699     6     5     1     6
 0.0004913820     6     5     2     4
 0.0073945276     6     5     3     1
 0.0192073862     6     5     4     2
 0.0215681103     6     5     5     3
 -0.1059285610     6     5     5     6
 0.1380267389     6     6     1     1
 -0.0033519699     6     6     1     5
 0.1330994426     6     6     2     2
 0.1330444552     6     6     3     3
 0.1070279238     6     6     4     4
 -0.0033519699     6     6     5     1
 0.1059285610     6     6     5     5
0.0 0 0 0 0
 0.2052604171     1     1     1     1
 -0.0140555842     1     1     1     5
 0.1536946636     1     1     2     2
 0.1545740380     1     1     3     3
 -0.0182136605     1     1     3     6
 0.1605631841     1     1     4     4
 -0.0140555842     1     1     5     1
 0.1466177301     1     1     5     5
 -0.0182136605     1     1     6     3
 0.1463704774     1     1     6     6
 0.0201690517     1     2     1     2
 0.0199322327     1     2     2     1
 -0.0187248627     1     2     2     5
 0.0104039169     1     2     3     4
 0.0106852064     1     2     4     3
 -0.0123718417     1     2     4     6
 -0.0181749170     1     2     5     2
 -0.0120172959     1     2     6     4
 0.0071229635     1     3     1     3
 -0.0029718211     1     3     1     6
 0.0070174371     1     3     2     4
 0.0091705201     1     3     3     1
 0.0119335396     1     3     3     5
 0.0076076009     1     3     4     2
 0.0118345315     1     3     5     3
 0.0104259344     1     3     5     6
 -0.0025376341     1     3     6     1
 0.0104788487     1     3     6     5
 0.0101554082     1     4     1     4
 -0.0011997700     1     4     2     3
 -0.0001775603     1     4     2     6
 -0.0007702372     1     4     3     2
 0.0075424249     1     4     4     1
 0.0012629150     1     4     4     5
 0.0007635844     1     4     5     4
 -0.0021701095     1     4     6     2
 -0.0140555842     1     5     1     1
 0.0129872928     1     5     1     5
 -0.0119041795     1     5     2     2
 0.0001700367     1     5     3     3
 -0.0000991552     1     5     3     6
 -0.0013165262     1     5     4     4
 0.0107675180     1     5     5     1
 -0.0048167459     1     5     5     5
 0.0018427125     1     5     6     3
 0.0013299640     1     5     6     6
 -0.0029718211     1     6     1     3
 0.0134507396     1     6     1     6
 0.0037735771     1     6     2     4
 -0.0025376341     1     6     3     1
 0.0017003902     1     6     3     5
 0.0017403998     1     6     4     2
 0.0030314068     1     6     5     3
 0.0046242024     1     6     5     6
 0.0083437385     1     6     6     1
 0.0046819339     1     6     6     5
 0.0199322327     2     1     1     2
 0.0201690517     2     1     2     1
 -0.0181749170     2     1     2     5
 0.0106852064     2     1     3     4
 0.0104039169     2     1     4     3
 -0.0120172959     2     1     4     6
 -0.0187248627     2     1     5     2
 -0.0123718417     2     1     6     4
 0.1536946636     2     2     1     1
 -0.0119041795     2     2     1     5
 0.1771699664     2     2     2     2
 0.1561743180     2     2     3     3
 0.0026596259     2     2     3     6
 0.1603088281     2     2     4     4
 -0.0119041795     2     2     5     1
 0.1671069202     2     2     5     5
 0.0026596259     2     2     6     3
 0.1485172823     2     2     6     6
 -0.0011997700     2     3     1     4
 0.0002965998     2     3     2     3
 0.0024465936     2     3     2     6
 0.0043945919     2     3     3     2
 -0.0007702372     2     3     4     1
 0.0037018214     2     3     4     5
 0.0002386211     2     3     5     4
 0.0023504354     2     3     6     2
 0.0070174371     2     4     1     3
 0.0037735771     2     4     1     6
 0.0271624479     2     4     2     4
 0.0076076009     2     4     3     1
 0.0243566674     2     4     3     5
 0.0274408669     2     4     4     2
 0.0201906497     2     4     5     3
 0.0262788227     2     4     5     6
 0.0017403998     2     4     6     1
 0.0270604554     2     4     6     5
 -0.0187248627     2     5     1     2
 -0.0181749170     2     5     2     1
 0.0374039642     2     5     2     5
 -0.0160487736     2     5     3     4
 -0.0168913781     2     5     4     3
 0.0257607097     2     5     4     6
 0.0319075879     2     5     5     2
 0.0265690734     2     5     6     4
 -0.0001775603     2     6     1     4
 0.0024465936     2     6     2     3
 0.0194514245     2     6     2     6
 0.0023504354     2     6     3     2
 -0.0021701095     2     6     4     1
 0.0070682324     2     6     4     5
 0.0070714365     2     6     5     4
 0.0154178397     2     6     6     2
 0.0091705201     3     1     1     3
 -0.0025376341     3     1     1     6
 0.0076076009     3     1     2     4
 0.0071229635     3     1     3     1
 0.0118345315     3     1     3     5
 0.0070174371     3     1     4     2
 0.0119335396     3     1     5     3
 0.0104788487     3     1     5     6
 -0.0029718211     3     1     6     1
 0.0104259344     3     1     6     5
 -0.0007702372     3     2     1     4
 0.0043945919     3     2     2     3
 0.0023504354     3     2     2     6
 0.0002965998     3     2     3     2
 -0.0011997700     3     2     4     1
 0.0002386211     3     2     4     5
 0.0037018214     3     2     5     4
 0.0024465936     3     2     6     2
 0.1545740380     3     3     1     1
 0.0001700367     3     3     1     5
 0.1561743180     3     3     2     2
 0.1667016261     3     3     3     3
 -0.0020854024     3     3     3     6
 0.1611540980     3     3     4     4
 0.0001700367     3     3     5     1
 0.1578890814     3     3     5     5
 -0.0020854024     3     3     6     3
 0.1480349712     3     3     6     6
 0.0104039169     3     4     1     2
 0.0106852064     3     4     2     1
 -0.0160487736     3     4     2     5
 0.0310821312     3     4     3     4
 0.0290405489     3     4     4     3
 -0.0270649051     3     4     4     6
 -0.0168913781     3     4     5     2
 -0.0275079095     3     4     6     4
 0.0119335396     3     5     1     3
 0.0017003902     3     5     1     6
 0.0243566674     3     5     2     4
 0.0118345315     3     5     3     1
 0.0250993417     3     5     3     5
 0.0201906497     3     5     4     2
 0.0271945241     3     5     5     3
 0.0275063948     3     5     5     6
 0.0030314068     3     5     6     1
 0.0280005064     3     5     6     5
 -0.0182136605     3     6     1     1
 -0.0000991552     3     6     1     5
 0.0026596259     3     6     2     2
 -0.0020854024     3     6     3     3
 0.0142638920     3     6     3     6
 -0.0051694644     3     6     4     4
 0.0018427125     3     6     5     1
 0.0059382845     3     6     5     5
 0.0149905160     3     6     6     3
 0.0000756305     3     6     6     6
 0.0075424249     4     1     1     4
 -0.0007702372     4     1     2     3
 -0.0021701095     4     1     2     6
 -0.0011997700     4     1     3     2
 0.0101554082     4     1     4     1
 0.0007635844     4     1     4     5
 0.0012629150     4     1     5     4
 -0.0001775603     4     1     6     2
 0.0076076009     4     2     1     3
 0.0017403998     4     2     1     6
 0.0274408669     4     2     2     4
 0.0070174371     4     2     3     1
 0.0201906497     4     2     3     5
 0.0271624479     4     2     4     2
 0.0243566674     4     2     5     3
 0.0270604554     4     2     5     6
 0.0037735771     4     2     6     1
 0.0262788227     4     2     6     5
 0.0106852064     4     3     1     2
 0.0104039169     4     3     2     1
 -0.0168913781     4     3     2     5
 0.0290405489     4     3     3     4
 0.0310821312     4     3     4     3
 -0.0275079095     4     3     4     6
 -0.0160487736     4     3     5     2
 -0.0270649051     4     3     6     4
 0.1605631841     4     4     1     1
 -0.0013165262     4     4     1     5
 0.1603088281     4     4     2     2
 0.1611540980     4     4     3     3
 -0.0051694644     4     4     3     6
 0.1585659418     4     4     4     4
 -0.0013165262     4     4     5     1
 0.1497425508     4     4     5     5
 -0.0051694644     4     4     6     3
 0.1448411385     4     4     6     6
 0.0012629150     4     5     1     4
 0.0037018214     4     5     2     3
 0.0070682324     4     5     2     6
 0.0002386211     4     5     3     2
 0.0007635844     4     5     4     1
 0.0028621598     4     5     4     5
 0.0065367026     4     5     5     4
 0.0070714365     4     5     6     2
 -0.0123718417     4     6     1     2
 -0.0120172959     4     6     2     1
 0.0257607097     4     6     2     5
 -0.0270649051     4     6     3     4
 -0.0275079095     4     6     4     3
 0.0370442374     4     6     4     6
 0.0265690734     4     6     5     2
 0.0378132147     4     6     6     4
 -0.0140555842     5     1     1     1
 0.0107675180     5     1     1     5
 -0.0119041795     5     1     2     2
 0.0001700367     5     1     3     3
 0.0018427125     5     1     3     6
 -0.0013165262     5     1     4     4
 0.0129872928     5     1     5     1
 -0.0048167459     5     1     5     5
 -0.0000991552     5     1     6     3
 0.0013299640     5     1     6     6
 -0.0181749170     5     2     1     2
 -0.0187248627     5     2     2     1
 0.0319075879     5     2     2     5
 -0.0168913781     5     2     3     4
 -0.0160487736     5     2     4     3
 0.0265690734     5     2     4     6
 0.0374039642     5     2     5     2
 0.0257607097     5     2     6     4
 0.0118345315     5     3     1     3
 0.0030314068     5     3     1     6
 0.0201906497     5     3     2     4
 0.0119335396     5     3     3     1
 0.0271945241     5     3     3     5
 0.0243566674     5     3     4     2
 0.0250993417     5     3     5     3
 0.0280005064     5     3     5     6
 0.0017003902     5     3     6     1
 0.0275063948     5     3     6     5
 0.0007635844     5     4     1     4
 0.0002386211     5     4     2     3
 0.0070714365     5     4     2     6
 0.0037018214     5     4     3     2
 0.0012629150     5     4     4     1
 0.0065367026     5     4     4     5
 0.0028621598     5     4     5     4
 0.0070682324     5     4     6     2
 0.1466177301     5     5     1     1
 -0.0048167459     5     5     1     5
 0.1671069202     5     5     2     2
 0.1578890814     5     5     3     3
 0.0059382845     5     5     3     6
 0.1497425508     5     5     4     4
 -0.0048167459     5     5     5     1
 0.1602630019     5     5     5     5
 0.0059382845     5     5     6     3
 0.1448341961     5     5     6     6
 0.0104259344     5     6     1     3
 0.0046242024     5     6     1     6
 0.0262788227     5     6     2     4
 0.0104788487     5     6     3     1
 0.0275063948     5     6     3     5
 0.0270604554     5     6     4     2
 0.0280005064     5     6     5     3
 0.0386408807     5     6     5     6
 0.0046819339     5     6     6     1
 0.0389056351     5     6     6     5
 -0.0025376341     6     1     1     3
 0.0083437385     6     1     1     6
 0.0017403998     6     1     2     4
 -0.0029718211     6     1     3     1
 0.0030314068     6     1     3     5
 0.0037735771     6     1     4     2
 0.0017003902     6     1     5     3
 0.0046819339     6     1     5     6
 0.0134507396     6     1     6     1
 0.0046242024     6     1     6     5
 -0.0021701095     6     2     1     4
 0.0023504354     6     2     2     3
 0.0154178397     6     2     2     6
 0.0024465936     6     2     3     2
 -0.0001775603     6     2     4     1
 0.0070714365     6     2     4     5
 0.0070682324     6     2     5     4
 0.0194514245     6     2     6     2