&FCI NORB=  8,NELEC= 10,MS2=0,
 ORBSYM=1,1,1,1,1,1,1,1
 ISYM=1,
&END
 0.2704928247     1     1     2     2
 0.2704928087     1     1     3     3
 0.0000000203     1     1     3     8
 0.2144097210     1     1     4     4
 0.2144097508     1     1     5     5
 0.2520787207     1     1     6     6
 0.2520787132     1     1     7     7
 0.0000000203     1     1     8     3
 0.1880268805     1     1     8     8
 -0.2704928247     1     2     2     1
 -0.0000000141     1     2     2     6
 0.0023454402     1     2     2     7
 -0.0023454390     1     2     3     6
 -0.0000000141     1     2     3     7
 -0.0000000002     1     2     6     3
 0.0005694490     1     2     6     8
 -0.0000000016     1     2     7     8
 -0.0012151977     1     2     8     6
 0.0000000035     1     2     8     7
 -0.0023454388     1     3     2     6
 -0.0000000141     1     3     2     7
 -0.2704928087     1     3     3     1
 0.0000000141     1     3     3     6
 -0.0023454472     1     3     3     7
 0.0000000002     1     3     6     2
 -0.0000000016     1     3     6     8
 -0.0005694501     1     3     7     8
 -0.0000000203     1     3     8     1
 0.0000000035     1     3     8     6
 0.0012151973     1     3     8     7
 -0.2144097210     1     4     4     1
 -0.0000000007     1     4     4     6
 0.0263692261     1     4     4     7
 -0.0263692293     1     4     5     6
 -0.0000000007     1     4     5     7
 -0.0000000142     1     4     6     5
 -0.0263692156     1     5     4     6
 -0.0000000007     1     5     4     7
 -0.2144097508     1     5     5     1
 0.0000000007     1     5     5     6
 -0.0263692126     1     5     5     7
 0.0000000142     1     5     6     4
 0.0000000141     1     6     2     2
 0.0023454388     1     6     2     3
 0.0020008188     1     6     2     8
 0.0023454390     1     6     3     2
 -0.0000000141     1     6     3     3
 -0.0000000058     1     6     3     8
 0.0000000007     1     6     4     4
 0.0263692156     1     6     4     5
 0.0263692293     1     6     5     4
 -0.0000000007     1     6     5     5
 -0.2520787207     1     6     6     1
 0.0000000001     1     6     6     7
 0.0012151977     1     6     8     2
 -0.0000000035     1     6     8     3
 -0.0023454402     1     7     2     2
 0.0000000141     1     7     2     3
 -0.0000000058     1     7     2     8
 0.0000000141     1     7     3     2
 0.0023454472     1     7     3     3
 -0.0020008196     1     7     3     8
 -0.0263692261     1     7     4     4
 0.0000000007     1     7     4     5
 0.0000000007     1     7     5     4
 0.0263692126     1     7     5     5
 -0.0000000001     1     7     6     6
 -0.2520787132     1     7     7     1
 -0.0000000035     1     7     8     2
 -0.0012151973     1     7     8     3
 0.0000000099     1     7     8     8
 -0.0020008188     1     8     2     6
 0.0000000058     1     8     2     7
 -0.0000000203     1     8     3     1
 0.0000000058     1     8     3     6
 0.0020008196     1     8     3     7
 -0.0005694490     1     8     6     2
 0.0000000016     1     8     6     3
 0.0000000016     1     8     7     2
 0.0005694501     1     8     7     3
 -0.1880268805     1     8     8     1
 -0.0000000099     1     8     8     7
 -0.2704928247     2     1     1     2
 -0.0000000002     2     1     3     6
 -0.0000000141     2     1     6     2
 -0.0023454390     2     1     6     3
 -0.0012151977     2     1     6     8
 0.0023454402     2     1     7     2
 -0.0000000141     2     1     7     3
 0.0000000035     2     1     7     8
 0.0005694490     2     1     8     6
 -0.0000000016     2     1     8     7
 0.2704928247     2     2     1     1
 0.0000000141     2     2     1     6
 -0.0023454402     2     2     1     7
 0.2585111311     2     2     3     3
 0.0000000200     2     2     3     8
 0.2666054638     2     2     4     4
 -0.0000000092     2     2     4     5
 -0.0000000092     2     2     5     4
 0.2696759614     2     2     5     5
 0.0000000141     2     2     6     1
 0.2608020174     2     2     6     6
 -0.0000000118     2     2     6     7
 -0.0023454402     2     2     7     1
 -0.0000000118     2     2     7     6
 0.2567717878     2     2     7     7
 0.0000000200     2     2     8     3
 0.1895647942     2     2     8     8
 0.0023454388     2     3     1     6
 0.0000000141     2     3     1     7
 -0.2585111311     2     3     3     2
 0.0000000092     2     3     4     4
 -0.0019220494     2     3     4     5
 -0.0011484506     2     3     5     4
 -0.0000000092     2     3     5     5
 0.0023454390     2     3     6     1
 -0.0000000118     2     3     6     6
 -0.0011733622     2     3     6     7
 0.0000000141     2     3     7     1
 -0.0028568531     2     3     7     6
 0.0000000118     2     3     7     7
 -0.0000000200     2     3     8     2
 -0.0000757137     2     4     3     5
 -0.2666054638     2     4     4     2
 -0.0000000092     2     4     4     3
 0.0000000026     2     4     4     8
 0.0000000092     2     4     5     2
 0.0011484506     2     4     5     3
 0.0009041567     2     4     5     8
 0.0000000006     2     4     8     5
 0.0000757137     2     5     3     4
 0.0000000092     2     5     4     2
 0.0019220494     2     5     4     3
 0.0009041561     2     5     4     8
 -0.2696759614     2     5     5     2
 0.0000000092     2     5     5     3
 -0.0000000026     2     5     5     8
 -0.0000000006     2     5     8     4
 -0.0000000141     2     6     1     2
 -0.0023454388     2     6     1     3
 -0.0020008188     2     6     1     8
 0.0000000002     2     6     3     1
 0.0007808257     2     6     3     7
 -0.2608020174     2     6     6     2
 0.0000000118     2     6     6     3
 -0.0000000008     2     6     6     8
 0.0000000118     2     6     7     2
 0.0028568531     2     6     7     3
 0.0002726992     2     6     7     8
 -0.0005694490     2     6     8     1
 0.0000000014     2     6     8     7
 0.0023454402     2     7     1     2
 -0.0000000141     2     7     1     3
 0.0000000058     2     7     1     8
 -0.0007808257     2     7     3     6
 0.0000000118     2     7     6     2
 0.0011733622     2     7     6     3
 0.0002726978     2     7     6     8
 -0.2567717878     2     7     7     2
 -0.0000000118     2     7     7     3
 0.0000000008     2     7     7     8
 0.0000000016     2     7     8     1
 -0.0000000014     2     7     8     6
 0.0020008188     2     8     1     6
 -0.0000000058     2     8     1     7
 -0.0000000200     2     8     3     2
 -0.0000000026     2     8     4     4
 -0.0009041561     2     8     4     5
 -0.0009041567     2     8     5     4
 0.0000000026     2     8     5     5
 0.0012151977     2     8     6     1
 0.0000000008     2     8     6     6
 -0.0002726978     2     8     6     7
 -0.0000000035     2     8     7     1
 -0.0002726992     2     8     7     6
 -0.0000000008     2     8     7     7
 -0.1895647942     2     8     8     2
 -0.2704928087     3     1     1     3
 -0.0000000203     3     1     1     8
 0.0000000002     3     1     2     6
 -0.0023454388     3     1     6     2
 0.0000000141     3     1     6     3
 0.0000000035     3     1     6     8
 -0.0000000141     3     1     7     2
 -0.0023454472     3     1     7     3
 0.0012151973     3     1     7     8
 -0.0000000016     3     1     8     6
 -0.0005694501     3     1     8     7
 0.0023454390     3     2     1     6
 0.0000000141     3     2     1     7
 -0.2585111311     3     2     2     3
 -0.0000000200     3     2     2     8
 0.0000000092     3     2     4     4
 -0.0011484506     3     2     4     5
 -0.0019220494     3     2     5     4
 -0.0000000092     3     2     5     5
 0.0023454388     3     2     6     1
 -0.0000000118     3     2     6     6
 -0.0028568531     3     2     6     7
 0.0000000141     3     2     7     1
 -0.0011733622     3     2     7     6
 0.0000000118     3     2     7     7
 0.2704928087     3     3     1     1
 -0.0000000141     3     3     1     6
 0.0023454472     3     3     1     7
 0.2585111311     3     3     2     2
 0.2696759536     3     3     4     4
 0.0000000092     3     3     4     5
 0.0000000092     3     3     5     4
 0.2666054377     3     3     5     5
 -0.0000000141     3     3     6     1
 0.2567717817     3     3     6     6
 0.0000000118     3     3     6     7
 0.0023454472     3     3     7     1
 0.0000000118     3     3     7     6
 0.2608019968     3     3     7     7
 0.1895648060     3     3     8     8
 0.0000757137     3     4     2     5
 -0.0000000092     3     4     4     2
 -0.2696759536     3     4     4     3
 0.0009041354     3     4     4     8
 0.0019220494     3     4     5     2
 -0.0000000092     3     4     5     3
 -0.0000000026     3     4     5     8
 -0.0000757137     3     5     2     4
 0.0011484506     3     5     4     2
 -0.0000000092     3     5     4     3
 -0.0000000026     3     5     4     8
 0.0000000092     3     5     5     2
 -0.2666054377     3     5     5     3
 -0.0009041770     3     5     5     8
 -0.0023454390     3     6     1     2
 0.0000000141     3     6     1     3
 0.0000000058     3     6     1     8
 -0.0000000002     3     6     2     1
 -0.0007808257     3     6     2     7
 0.0000000118     3     6     6     2
 -0.2567717817     3     6     6     3
 -0.0002727169     3     6     6     8
 0.0011733622     3     6     7     2
 -0.0000000118     3     6     7     3
 -0.0000000008     3     6     7     8
 0.0000000016     3     6     8     1
 -0.0000000141     3     7     1     2
 -0.0023454472     3     7     1     3
 0.0020008196     3     7     1     8
 0.0007808257     3     7     2     6
 0.0028568531     3     7     6     2
 -0.0000000118     3     7     6     3
 -0.0000000008     3     7     6     8
 -0.0000000118     3     7     7     2
 -0.2608019968     3     7     7     3
 0.0002726809     3     7     7     8
 0.0005694501     3     7     8     1
 0.0000000203     3     8     1     1
 -0.0000000058     3     8     1     6
 -0.0020008196     3     8     1     7
 0.0000000200     3     8     2     2
 -0.0009041354     3     8     4     4
 0.0000000026     3     8     4     5
 0.0000000026     3     8     5     4
 0.0009041770     3     8     5     5
 -0.0000000035     3     8     6     1
 0.0002727169     3     8     6     6
 0.0000000008     3     8     6     7
 -0.0012151973     3     8     7     1
 0.0000000008     3     8     7     6
 -0.0002726809     3     8     7     7
 -0.1895648060     3     8     8     3
 -0.2144097210     4     1     1     4
 -0.0000000142     4     1     5     6
 -0.0000000007     4     1     6     4
 -0.0263692293     4     1     6     5
 0.0263692261     4     1     7     4
 -0.0000000007     4     1     7     5
 -0.2666054638     4     2     2     4
 0.0000000092     4     2     2     5
 -0.0000000092     4     2     3     4
 0.0011484506     4     2     3     5
 -0.0000757137     4     2     5     3
 0.0000000006     4     2     5     8
 0.0000000026     4     2     8     4
 0.0009041567     4     2     8     5
 -0.0000000092     4     3     2     4
 0.0019220494     4     3     2     5
 -0.2696759536     4     3     3     4
 -0.0000000092     4     3     3     5
 0.0000757137     4     3     5     2
 0.0009041354     4     3     8     4
 -0.0000000026     4     3     8     5
 0.2144097210     4     4     1     1
 0.0000000007     4     4     1     6
 -0.0263692261     4     4     1     7
 0.2666054638     4     4     2     2
 0.0000000092     4     4     2     3
 -0.0000000026     4     4     2     8
 0.0000000092     4     4     3     2
 0.2696759536     4     4     3     3
 -0.0009041354     4     4     3     8
 0.2505110753     4     4     5     5
 0.0000000007     4     4     6     1
 0.2309131643     4     4     6     6
 -0.0000000009     4     4     6     7
 -0.0263692261     4     4     7     1
 -0.0000000009     4     4     7     6
 0.2406040747     4     4     7     7
 -0.0000000026     4     4     8     2
 -0.0009041354     4     4     8     3
 0.1878691588     4     4     8     8
 0.0263692156     4     5     1     6
 0.0000000007     4     5     1     7
 -0.0000000092     4     5     2     2
 -0.0019220494     4     5     2     3
 -0.0009041561     4     5     2     8
 -0.0011484506     4     5     3     2
 0.0000000092     4     5     3     3
 0.0000000026     4     5     3     8
 -0.2505110753     4     5     5     4
 0.0263692293     4     5     6     1
 -0.0000000009     4     5     6     6
 0.0273243195     4     5     6     7
 0.0000000007     4     5     7     1
 -0.0176333995     4     5     7     6
 0.0000000009     4     5     7     7
 -0.0009041567     4     5     8     2
 0.0000000026     4     5     8     3
 -0.0000000007     4     6     1     4
 -0.0263692156     4     6     1     5
 0.0000000142     4     6     5     1
 0.0448085790     4     6     5     7
 -0.2309131643     4     6     6     4
 0.0000000009     4     6     6     5
 0.0000000009     4     6     7     4
 0.0176333995     4     6     7     5
 0.0263692261     4     7     1     4
 -0.0000000007     4     7     1     5
 -0.0448085790     4     7     5     6
 0.0000000009     4     7     6     4
 -0.0273243195     4     7     6     5
 -0.2406040747     4     7     7     4
 -0.0000000009     4     7     7     5
 0.0000000026     4     8     2     4
 0.0009041561     4     8     2     5
 0.0009041354     4     8     3     4
 -0.0000000026     4     8     3     5
 -0.0000000006     4     8     5     2
 -0.1878691588     4     8     8     4
 -0.2144097508     5     1     1     5
 0.0000000142     5     1     4     6
 -0.0263692156     5     1     6     4
 0.0000000007     5     1     6     5
 -0.0000000007     5     1     7     4
 -0.0263692126     5     1     7     5
 0.0000000092     5     2     2     4
 -0.2696759614     5     2     2     5
 0.0019220494     5     2     3     4
 0.0000000092     5     2     3     5
 0.0000757137     5     2     4     3
 -0.0000000006     5     2     4     8
 0.0009041561     5     2     8     4
 -0.0000000026     5     2     8     5
 0.0011484506     5     3     2     4
 0.0000000092     5     3     2     5
 -0.0000000092     5     3     3     4
 -0.2666054377     5     3     3     5
 -0.0000757137     5     3     4     2
 -0.0000000026     5     3     8     4
 -0.0009041770     5     3     8     5
 0.0263692293     5     4     1     6
 0.0000000007     5     4     1     7
 -0.0000000092     5     4     2     2
 -0.0011484506     5     4     2     3
 -0.0009041567     5     4     2     8
 -0.0019220494     5     4     3     2
 0.0000000092     5     4     3     3
 0.0000000026     5     4     3     8
 -0.2505110753     5     4     4     5
 0.0263692156     5     4     6     1
 -0.0000000009     5     4     6     6
 -0.0176333995     5     4     6     7
 0.0000000007     5     4     7     1
 0.0273243195     5     4     7     6
 0.0000000009     5     4     7     7
 -0.0009041561     5     4     8     2
 0.0000000026     5     4     8     3
 0.2144097508     5     5     1     1
 -0.0000000007     5     5     1     6
 0.0263692126     5     5     1     7
 0.2696759614     5     5     2     2
 -0.0000000092     5     5     2     3
 0.0000000026     5     5     2     8
 -0.0000000092     5     5     3     2
 0.2666054377     5     5     3     3
 0.0009041770     5     5     3     8
 0.2505110753     5     5     4     4
 -0.0000000007     5     5     6     1
 0.2406040725     5     5     6     6
 0.0000000009     5     5     6     7
 0.0263692126     5     5     7     1
 0.0000000009     5     5     7     6
 0.2309131552     5     5     7     7
 0.0000000026     5     5     8     2
 0.0009041770     5     5     8     3
 0.1878691404     5     5     8     8
 -0.0263692293     5     6     1     4
 0.0000000007     5     6     1     5
 -0.0000000142     5     6     4     1
 -0.0448085790     5     6     4     7
 0.0000000009     5     6     6     4
 -0.2406040725     5     6     6     5
 -0.0273243195     5     6     7     4
 -0.0000000009     5     6     7     5
 -0.0000000007     5     7     1     4
 -0.0263692126     5     7     1     5
 0.0448085790     5     7     4     6
 0.0176333995     5     7     6     4
 -0.0000000009     5     7     6     5
 -0.0000000009     5     7     7     4
 -0.2309131552     5     7     7     5
 0.0009041567     5     8     2     4
 -0.0000000026     5     8     2     5
 -0.0000000026     5     8     3     4
 -0.0009041770     5     8     3     5
 0.0000000006     5     8     4     2
 -0.1878691404     5     8     8     5
 -0.2520787207     6     1     1     6
 0.0000000141     6     1     2     2
 0.0023454390     6     1     2     3
 0.0012151977     6     1     2     8
 0.0023454388     6     1     3     2
 -0.0000000141     6     1     3     3
 -0.0000000035     6     1     3     8
 0.0000000007     6     1     4     4
 0.0263692293     6     1     4     5
 0.0263692156     6     1     5     4
 -0.0000000007     6     1     5     5
 0.0000000001     6     1     7     6
 0.0020008188     6     1     8     2
 -0.0000000058     6     1     8     3
 0.0000000002     6     2     1     3
 -0.0005694490     6     2     1     8
 -0.0000000141     6     2     2     1
 -0.2608020174     6     2     2     6
 0.0000000118     6     2     2     7
 -0.0023454388     6     2     3     1
 0.0000000118     6     2     3     6
 0.0028568531     6     2     3     7
 0.0007808257     6     2     7     3
 0.0000000014     6     2     7     8
 -0.0020008188     6     2     8     1
 -0.0000000008     6     2     8     6
 0.0002726992     6     2     8     7
 -0.0000000002     6     3     1     2
 0.0000000016     6     3     1     8
 -0.0023454390     6     3     2     1
 0.0000000118     6     3     2     6
 0.0011733622     6     3     2     7
 0.0000000141     6     3     3     1
 -0.2567717817     6     3     3     6
 -0.0000000118     6     3     3     7
 -0.0007808257     6     3     7     2
 0.0000000058     6     3     8     1
 -0.0002727169     6     3     8     6
 -0.0000000008     6     3     8     7
 0.0000000142     6     4     1     5
 -0.0000000007     6     4     4     1
 -0.2309131643     6     4     4     6
 0.0000000009     6     4     4     7
 -0.0263692156     6     4     5     1
 0.0000000009     6     4     5     6
 0.0176333995     6     4     5     7
 0.0448085790     6     4     7     5
 -0.0000000142     6     5     1     4
 -0.0263692293     6     5     4     1
 0.0000000009     6     5     4     6
 -0.0273243195     6     5     4     7
 0.0000000007     6     5     5     1
 -0.2406040725     6     5     5     6
 -0.0000000009     6     5     5     7
 -0.0448085790     6     5     7     4
 0.2520787207     6     6     1     1
 -0.0000000001     6     6     1     7
 0.2608020174     6     6     2     2
 -0.0000000118     6     6     2     3
 0.0000000008     6     6     2     8
 -0.0000000118     6     6     3     2
 0.2567717817     6     6     3     3
 0.0002727169     6     6     3     8
 0.2309131643     6     6     4     4
 -0.0000000009     6     6     4     5
 -0.0000000009     6     6     5     4
 0.2406040725     6     6     5     5
 -0.0000000001     6     6     7     1
 0.2438215565     6     6     7     7
 0.0000000008     6     6     8     2
 0.0002727169     6     6     8     3
 0.1843865799     6     6     8     8
 0.0000000001     6     7     1     6
 -0.0000000118     6     7     2     2
 -0.0011733622     6     7     2     3
 -0.0002726978     6     7     2     8
 -0.0028568531     6     7     3     2
 0.0000000118     6     7     3     3
 0.0000000008     6     7     3     8
 -0.0000000009     6     7     4     4
 0.0273243195     6     7     4     5
 -0.0176333995     6     7     5     4
 0.0000000009     6     7     5     5
 -0.2438215565     6     7     7     6
 -0.0002726992     6     7     8     2
 0.0000000008     6     7     8     3
 0.0005694490     6     8     1     2
 -0.0000000016     6     8     1     3
 -0.0012151977     6     8     2     1
 -0.0000000008     6     8     2     6
 0.0002726978     6     8     2     7
 0.0000000035     6     8     3     1
 -0.0002727169     6     8     3     6
 -0.0000000008     6     8     3     7
 -0.0000000014     6     8     7     2
 -0.1843865799     6     8     8     6
 -0.2520787132     7     1     1     7
 -0.0023454402     7     1     2     2
 0.0000000141     7     1     2     3
 -0.0000000035     7     1     2     8
 0.0000000141     7     1     3     2
 0.0023454472     7     1     3     3
 -0.0012151973     7     1     3     8
 -0.0263692261     7     1     4     4
 0.0000000007     7     1     4     5
 0.0000000007     7     1     5     4
 0.0263692126     7     1     5     5
 -0.0000000001     7     1     6     6
 -0.0000000058     7     1     8     2
 -0.0020008196     7     1     8     3
 0.0000000099     7     1     8     8
 0.0000000016     7     2     1     8
 0.0023454402     7     2     2     1
 0.0000000118     7     2     2     6
 -0.2567717878     7     2     2     7
 -0.0000000141     7     2     3     1
 0.0011733622     7     2     3     6
 -0.0000000118     7     2     3     7
 -0.0007808257     7     2     6     3
 -0.0000000014     7     2     6     8
 0.0000000058     7     2     8     1
 0.0002726978     7     2     8     6
 0.0000000008     7     2     8     7
 0.0005694501     7     3     1     8
 -0.0000000141     7     3     2     1
 0.0028568531     7     3     2     6
 -0.0000000118     7     3     2     7
 -0.0023454472     7     3     3     1
 -0.0000000118     7     3     3     6
 -0.2608019968     7     3     3     7
 0.0007808257     7     3     6     2
 0.0020008196     7     3     8     1
 -0.0000000008     7     3     8     6
 0.0002726809     7     3     8     7
 0.0263692261     7     4     4     1
 0.0000000009     7     4     4     6
 -0.2406040747     7     4     4     7
 -0.0000000007     7     4     5     1
 -0.0273243195     7     4     5     6
 -0.0000000009     7     4     5     7
 -0.0448085790     7     4     6     5
 -0.0000000007     7     5     4     1
 0.0176333995     7     5     4     6
 -0.0000000009     7     5     4     7
 -0.0263692126     7     5     5     1
 -0.0000000009     7     5     5     6
 -0.2309131552     7     5     5     7
 0.0448085790     7     5     6     4
 -0.0000000118     7     6     2     2
 -0.0028568531     7     6     2     3
 -0.0002726992     7     6     2     8
 -0.0011733622     7     6     3     2
 0.0000000118     7     6     3     3
 0.0000000008     7     6     3     8
 -0.0000000009     7     6     4     4
 -0.0176333995     7     6     4     5
 0.0273243195     7     6     5     4
 0.0000000009     7     6     5     5
 0.0000000001     7     6     6     1
 -0.2438215565     7     6     6     7
 -0.0002726978     7     6     8     2
 0.0000000008     7     6     8     3
 0.2520787132     7     7     1     1
 0.2567717878     7     7     2     2
 0.0000000118     7     7     2     3
 -0.0000000008     7     7     2     8
 0.0000000118     7     7     3     2
 0.2608019968     7     7     3     3
 -0.0002726809     7     7     3     8
 0.2406040747     7     7     4     4
 0.0000000009     7     7     4     5
 0.0000000009     7     7     5     4
 0.2309131552     7     7     5     5
 0.2438215565     7     7     6     6
 -0.0000000008     7     7     8     2
 -0.0002726809     7     7     8     3
 0.1843865886     7     7     8     8
 -0.0000000016     7     8     1     2
 -0.0005694501     7     8     1     3
 0.0000000035     7     8     2     1
 0.0002726992     7     8     2     6
 0.0000000008     7     8     2     7
 0.0012151973     7     8     3     1
 -0.0000000008     7     8     3     6
 0.0002726809     7     8     3     7
 0.0000000014     7     8     6     2
 -0.0000000099     7     8     8     1
 -0.1843865886     7     8     8     7
 -0.0000000203     8     1     1     3
 -0.1880268805     8     1     1     8
 -0.0005694490     8     1     2     6
 0.0000000016     8     1     2     7
 0.0000000016     8     1     3     6
 0.0005694501     8     1     3     7
 -0.0020008188     8     1     6     2
 0.0000000058     8     1     6     3
 0.0000000058     8     1     7     2
 0.0020008196     8     1     7     3
 -0.0000000099     8     1     7     8
 0.0012151977     8     2     1     6
 -0.0000000035     8     2     1     7
 -0.0000000200     8     2     2     3
 -0.1895647942     8     2     2     8
 -0.0000000026     8     2     4     4
 -0.0009041567     8     2     4     5
 -0.0009041561     8     2     5     4
 0.0000000026     8     2     5     5
 0.0020008188     8     2     6     1
 0.0000000008     8     2     6     6
 -0.0002726992     8     2     6     7
 -0.0000000058     8     2     7     1
 -0.0002726978     8     2     7     6
 -0.0000000008     8     2     7     7
 0.0000000203     8     3     1     1
 -0.0000000035     8     3     1     6
 -0.0012151973     8     3     1     7
 0.0000000200     8     3     2     2
 -0.1895648060     8     3     3     8
 -0.0009041354     8     3     4     4
 0.0000000026     8     3     4     5
 0.0000000026     8     3     5     4
 0.0009041770     8     3     5     5
 -0.0000000058     8     3     6     1
 0.0002727169     8     3     6     6
 0.0000000008     8     3     6     7
 -0.0020008196     8     3     7     1
 0.0000000008     8     3     7     6
 -0.0002726809     8     3     7     7
 -0.0000000006     8     4     2     5
 0.0000000026     8     4     4     2
 0.0009041354     8     4     4     3
 -0.1878691588     8     4     4     8
 0.0009041561     8     4     5     2
 -0.0000000026     8     4     5     3
 0.0000000006     8     5     2     4
 0.0009041567     8     5     4     2
 -0.0000000026     8     5     4     3
 -0.0000000026     8     5     5     2
 -0.0009041770     8     5     5     3
 -0.1878691404     8     5     5     8
 -0.0012151977     8     6     1     2
 0.0000000035     8     6     1     3
 0.0005694490     8     6     2     1
 -0.0000000014     8     6     2     7
 -0.0000000016     8     6     3     1
 -0.0000000008     8     6     6     2
 -0.0002727169     8     6     6     3
 -0.1843865799     8     6     6     8
 0.0002726978     8     6     7     2
 -0.0000000008     8     6     7     3
 0.0000000035     8     7     1     2
 0.0012151973     8     7     1     3
 -0.0000000099     8     7     1     8
 -0.0000000016     8     7     2     1
 0.0000000014     8     7     2     6
 -0.0005694501     8     7     3     1
 0.0002726992     8     7     6     2
 -0.0000000008     8     7     6     3
 0.0000000008     8     7     7     2
 0.0002726809     8     7     7     3
 -0.1843865886     8     7     7     8
 0.1880268805     8     8     1     1
 0.0000000099     8     8     1     7
 0.1895647942     8     8     2     2
 0.1895648060     8     8     3     3
 0.1878691588     8     8     4     4
 0.1878691404     8     8     5     5
 0.1843865799     8     8     6     6
 0.0000000099     8     8     7     1
 0.1843865886     8     8     7     7
0.0 0 0 0 0
 0.2704928247     1     1     2     2
 0.2704928087     1     1     3     3
 0.0000000203     1     1     3     8
 0.2144097210     1     1     4     4
 0.2144097508     1     1     5     5
 0.2520787207     1     1     6     6
 0.2520787132     1     1     7     7
 0.0000000203     1     1     8     3
 0.1880268805     1     1     8     8
 -0.2704928247     1     2     2     1
 -0.0000000141     1     2     2     6
 0.0023454402     1     2     2     7
 -0.0023454390     1     2     3     6
 -0.0000000141     1     2     3     7
 -0.0000000002     1     2     6     3
 0.0005694490     1     2     6     8
 -0.0000000016     1     2     7     8
 -0.0012151977     1     2     8     6
 0.0000000035     1     2     8     7
 -0.0023454388     1     3     2     6
 -0.0000000141     1     3     2     7
 -0.2704928087     1     3     3     1
 0.0000000141     1     3     3     6
 -0.0023454472     1     3     3     7
 0.0000000002     1     3     6     2
 -0.0000000016     1     3     6     8
 -0.0005694501     1     3     7     8
 -0.0000000203     1     3     8     1
 0.0000000035     1     3     8     6
 0.0012151973     1     3     8     7
 -0.2144097210     1     4     4     1
 -0.0000000007     1     4     4     6
 0.0263692261     1     4     4     7
 -0.0263692293     1     4     5     6
 -0.0000000007     1     4     5     7
 -0.0000000142     1     4     6     5
 -0.0263692156     1     5     4     6
 -0.0000000007     1     5     4     7
 -0.2144097508     1     5     5     1
 0.0000000007     1     5     5     6
 -0.0263692126     1     5     5     7
 0.0000000142     1     5     6     4
 0.0000000141     1     6     2     2
 0.0023454388     1     6     2     3
 0.0020008188     1     6     2     8
 0.0023454390     1     6     3     2
 -0.0000000141     1     6     3     3
 -0.0000000058     1     6     3     8
 0.0000000007     1     6     4     4
 0.0263692156     1     6     4     5
 0.0263692293     1     6     5     4
 -0.0000000007     1     6     5     5
 -0.2520787207     1     6     6     1
 0.0000000001     1     6     6     7
 0.0012151977     1     6     8     2
 -0.0000000035     1     6     8     3
 -0.0023454402     1     7     2     2
 0.0000000141     1     7     2     3
 -0.0000000058     1     7     2     8
 0.0000000141     1     7     3     2
 0.0023454472     1     7     3     3
 -0.0020008196     1     7     3     8
 -0.0263692261     1     7     4     4
 0.0000000007     1     7     4     5
 0.0000000007     1     7     5     4
 0.0263692126     1     7     5     5
 -0.0000000001     1     7     6     6
 -0.2520787132     1     7     7     1
 -0.0000000035     1     7     8     2
 -0.0012151973     1     7     8     3
 0.0000000099     1     7     8     8
 -0.0020008188     1     8     2     6
 0.0000000058     1     8     2     7
 -0.0000000203     1     8     3     1
 0.0000000058     1     8     3     6
 0.0020008196     1     8     3     7
 -0.0005694490     1     8     6     2
 0.0000000016     1     8     6     3
 0.0000000016     1     8     7     2
 0.0005694501     1     8     7     3
 -0.1880268805     1     8     8     1