&FCI NORB=  9,NELEC= 10,MS2=0,
 ORBSYM=1,1,1,1,1,1,1,1,1
 ISYM=1,
&END
 0.2693361818     1     1     2     2
 0.2693361658     1     1     3     3
 0.0000006724     1     1     3     8
 0.2140812145     1     1     4     4
 0.2140811829     1     1     5     5
 0.2512868015     1     1     6     6
 0.2512867944     1     1     7     7
 0.0000006724     1     1     8     3
 0.1878363071     1     1     8     8
 0.1765854551     1     1     9     9
 -0.2693361818     1     2     2     1
 0.0000000130     1     2     2     6
 0.0023898743     1     2     2     7
 -0.0023955672     1     2     3     6
 0.0000000130     1     2     3     7
 -0.0000000003     1     2     4     9
 0.0001257805     1     2     5     9
 0.0000011514     1     2     6     3
 -0.0005937916     1     2     6     8
 -0.0000000016     1     2     7     8
 0.0012046000     1     2     8     6
 0.0000000033     1     2     8     7
 -0.0000000077     1     2     9     4
 0.0031712349     1     2     9     5
 -0.0023992547     1     3     2     6
 0.0000000130     1     3     2     7
 -0.2693361658     1     3     3     1
 -0.0000000130     1     3     3     6
 -0.0023861938     1     3     3     7
 0.0001255011     1     3     4     9
 0.0000000003     1     3     5     9
 -0.0000011514     1     3     6     2
 -0.0000000016     1     3     6     8
 0.0005938396     1     3     7     8
 -0.0000006724     1     3     8     1
 0.0000000033     1     3     8     6
 -0.0012045997     1     3     8     7
 0.0032273785     1     3     9     4
 0.0000000075     1     3     9     5
 0.0000000072     1     4     2     9
 -0.0030368728     1     4     3     9
 -0.2140812145     1     4     4     1
 -0.0000000002     1     4     4     6
 0.0268706994     1     4     4     7
 -0.0268238333     1     4     5     6
 -0.0000000002     1     4     5     7
 0.0000157455     1     4     6     5
 0.0379882110     1     4     8     9
 0.0000000077     1     4     9     2
 -0.0032273785     1     4     9     3
 0.0377213329     1     4     9     8
 -0.0030223569     1     5     2     9
 -0.0000000071     1     5     3     9
 -0.0268396992     1     5     4     6
 -0.0000000002     1     5     4     7
 -0.2140811829     1     5     5     1
 0.0000000002     1     5     5     6
 -0.0268548064     1     5     5     7
 -0.0000157455     1     5     6     4
 0.0000000129     1     5     8     9
 -0.0031712349     1     5     9     2
 -0.0000000075     1     5     9     3
 0.0000000128     1     5     9     8
 -0.0000000130     1     6     2     2
 0.0023992547     1     6     2     3
 -0.0021655731     1     6     2     8
 0.0023955672     1     6     3     2
 0.0000000130     1     6     3     3
 -0.0000000059     1     6     3     8
 0.0000000002     1     6     4     4
 0.0268396992     1     6     4     5
 0.0268238333     1     6     5     4
 -0.0000000002     1     6     5     5
 -0.2512868015     1     6     6     1
 -0.0012046000     1     6     8     2
 -0.0000000033     1     6     8     3
 -0.0000000057     1     6     9     9
 -0.0023898743     1     7     2     2
 -0.0000000130     1     7     2     3
 -0.0000000061     1     7     2     8
 -0.0000000130     1     7     3     2
 0.0023861938     1     7     3     3
 0.0022483951     1     7     3     8
 -0.0268706994     1     7     4     4
 0.0000000002     1     7     4     5
 0.0000000002     1     7     5     4
 0.0268548064     1     7     5     5
 -0.2512867944     1     7     7     1
 -0.0000000033     1     7     8     2
 0.0012045997     1     7     8     3
 -0.0000014392     1     7     8     8
 0.0083244616     1     7     9     9
 0.0021655731     1     8     2     6
 0.0000000061     1     8     2     7
 -0.0000006724     1     8     3     1
 0.0000000059     1     8     3     6
 -0.0022483951     1     8     3     7
 0.0002990527     1     8     4     9
 0.0000000001     1     8     5     9
 0.0005937916     1     8     6     2
 0.0000000016     1     8     6     3
 0.0000000016     1     8     7     2
 -0.0005938396     1     8     7     3
 -0.1878363071     1     8     8     1
 0.0000014392     1     8     8     7
 -0.0377213329     1     8     9     4
 -0.0000000128     1     8     9     5
 -0.0000000072     1     9     2     4
 0.0030223569     1     9     2     5
 0.0030368728     1     9     3     4
 0.0000000071     1     9     3     5
 0.0000000003     1     9     4     2
 -0.0001255011     1     9     4     3
 -0.0002990527     1     9     4     8
 -0.0001257805     1     9     5     2
 -0.0000000003     1     9     5     3
 -0.0000000001     1     9     5     8
 -0.0379882110     1     9     8     4
 -0.0000000129     1     9     8     5
 -0.1765854551     1     9     9     1
 0.0000000057     1     9     9     6
 -0.0083244616     1     9     9     7
 -0.2693361818     2     1     1     2
 0.0000011514     2     1     3     6
 -0.0000000077     2     1     4     9
 0.0031712349     2     1     5     9
 0.0000000130     2     1     6     2
 -0.0023955672     2     1     6     3
 0.0012046000     2     1     6     8
 0.0023898743     2     1     7     2
 0.0000000130     2     1     7     3
 0.0000000033     2     1     7     8
 -0.0005937916     2     1     8     6
 -0.0000000016     2     1     8     7
 -0.0000000003     2     1     9     4
 0.0001257805     2     1     9     5
 0.2693361818     2     2     1     1
 -0.0000000130     2     2     1     6
 -0.0023898743     2     2     1     7
 0.2578296122     2     2     3     3
 -0.0000000202     2     2     3     8
 0.2652361541     2     2     4     4
 0.0000000093     2     2     4     5
 0.0000000093     2     2     5     4
 0.2686658412     2     2     5     5
 -0.0000000130     2     2     6     1
 0.2614781357     2     2     6     6
 0.0000000103     2     2     6     7
 -0.0023898743     2     2     7     1
 0.0000000103     2     2     7     6
 0.2576701880     2     2     7     7
 -0.0000000202     2     2     8     3
 0.1892658138     2     2     8     8
 0.1751001709     2     2     9     9
 0.0023992547     2     3     1     6
 -0.0000000130     2     3     1     7
 -0.2578296122     2     3     3     2
 -0.0000000094     2     3     4     4
 -0.0020832077     2     3     4     5
 -0.0013528906     2     3     5     4
 0.0000000093     2     3     5     5
 0.0023955672     2     3     6     1
 0.0000000103     2     3     6     6
 -0.0010246873     2     3     6     7
 -0.0000000130     2     3     7     1
 -0.0027718154     2     3     7     6
 -0.0000000103     2     3     7     7
 0.0000000202     2     3     8     2
 -0.0000000298     2     3     9     9
 -0.0000000072     2     4     1     9
 -0.0000715150     2     4     3     5
 -0.2652361541     2     4     4     2
 0.0000000094     2     4     4     3
 0.0000000026     2     4     4     8
 -0.0000000093     2     4     5     2
 0.0013528906     2     4     5     3
 -0.0010427410     2     4     5     8
 -0.0012687029     2     4     6     9
 -0.0000000121     2     4     7     9
 0.0000019289     2     4     8     5
 0.0000000003     2     4     9     1
 -0.0001061368     2     4     9     6
 -0.0000000007     2     4     9     7
 0.0030223569     2     5     1     9
 0.0000715150     2     5     3     4
 -0.0000000093     2     5     4     2
 0.0020832077     2     5     4     3
 -0.0009844259     2     5     4     8
 -0.2686658412     2     5     5     2
 -0.0000000093     2     5     5     3
 -0.0000000027     2     5     5     8
 -0.0000000037     2     5     6     9
 -0.0022397155     2     5     7     9
 -0.0000019289     2     5     8     4
 -0.0001257805     2     5     9     1
 -0.0000000007     2     5     9     6
 0.0000732983     2     5     9     7
 0.0000000130     2     6     1     2
 -0.0023992547     2     6     1     3
 0.0021655731     2     6     1     8
 -0.0000011514     2     6     3     1
 0.0007796143     2     6     3     7
 -0.0007154448     2     6     4     9
 -0.0000000015     2     6     5     9
 -0.2614781357     2     6     6     2
 -0.0000000103     2     6     6     3
 -0.0000000008     2     6     6     8
 -0.0000000103     2     6     7     2
 0.0027718154     2     6     7     3
 -0.0002606600     2     6     7     8
 0.0005937916     2     6     8     1
 0.0000017555     2     6     8     7
 0.0001061368     2     6     9     4
 0.0000000007     2     6     9     5
 0.0023898743     2     7     1     2
 0.0000000130     2     7     1     3
 0.0000000061     2     7     1     8
 -0.0007796143     2     7     3     6
 -0.0000000079     2     7     4     9
 -0.0019616280     2     7     5     9
 -0.0000000103     2     7     6     2
 0.0010246873     2     7     6     3
 -0.0003211699     2     7     6     8
 -0.2576701880     2     7     7     2
 0.0000000103     2     7     7     3
 0.0000000009     2     7     7     8
 0.0000000016     2     7     8     1
 -0.0000017555     2     7     8     6
 0.0000000007     2     7     9     4
 -0.0000732983     2     7     9     5
 -0.0021655731     2     8     1     6
 -0.0000000061     2     8     1     7
 0.0000000202     2     8     3     2
 -0.0000000026     2     8     4     4
 0.0009844259     2     8     4     5
 0.0010427410     2     8     5     4
 0.0000000027     2     8     5     5
 -0.0012046000     2     8     6     1
 0.0000000008     2     8     6     6
 0.0003211699     2     8     6     7
 -0.0000000033     2     8     7     1
 0.0002606600     2     8     7     6
 -0.0000000009     2     8     7     7
 -0.1892658138     2     8     8     2
 -0.0000000019     2     8     9     9
 0.0000000072     2     9     1     4
 -0.0030223569     2     9     1     5
 0.0000000077     2     9     4     1
 0.0007154448     2     9     4     6
 0.0000000079     2     9     4     7
 -0.0031712349     2     9     5     1
 0.0000000015     2     9     5     6
 0.0019616280     2     9     5     7
 0.0012687029     2     9     6     4
 0.0000000037     2     9     6     5
 0.0000000121     2     9     7     4
 0.0022397155     2     9     7     5
 -0.1751001709     2     9     9     2
 0.0000000298     2     9     9     3
 0.0000000019     2     9     9     8
 -0.2693361658     3     1     1     3
 -0.0000006724     3     1     1     8
 -0.0000011514     3     1     2     6
 0.0032273785     3     1     4     9
 0.0000000075     3     1     5     9
 -0.0023992547     3     1     6     2
 -0.0000000130     3     1     6     3
 0.0000000033     3     1     6     8
 0.0000000130     3     1     7     2
 -0.0023861938     3     1     7     3
 -0.0012045997     3     1     7     8
 -0.0000000016     3     1     8     6
 0.0005938396     3     1     8     7
 0.0001255011     3     1     9     4
 0.0000000003     3     1     9     5
 0.0023955672     3     2     1     6
 -0.0000000130     3     2     1     7
 -0.2578296122     3     2     2     3
 0.0000000202     3     2     2     8
 -0.0000000094     3     2     4     4
 -0.0013528906     3     2     4     5
 -0.0020832077     3     2     5     4
 0.0000000093     3     2     5     5
 0.0023992547     3     2     6     1
 0.0000000103     3     2     6     6
 -0.0027718154     3     2     6     7
 -0.0000000130     3     2     7     1
 -0.0010246873     3     2     7     6
 -0.0000000103     3     2     7     7
 -0.0000000298     3     2     9     9
 0.2693361658     3     3     1     1
 0.0000000130     3     3     1     6
 0.0023861938     3     3     1     7
 0.2578296122     3     3     2     2
 0.2686776894     3     3     4     4
 -0.0000000093     3     3     4     5
 -0.0000000093     3     3     5     4
 0.2652351665     3     3     5     5
 0.0000000130     3     3     6     1
 0.2576792460     3     3     6     6
 -0.0000000103     3     3     6     7
 0.0023861938     3     3     7     1
 -0.0000000103     3     3     7     6
 0.2614643177     3     3     7     7
 0.1892658257     3     3     8     8
 0.1848337661     3     3     9     9
 0.0030368728     3     4     1     9
 0.0000715150     3     4     2     5
 0.0000000094     3     4     4     2
 -0.2686776894     3     4     4     3
 -0.0009269826     3     4     4     8
 0.0020832077     3     4     5     2
 0.0000000093     3     4     5     3
 -0.0000000029     3     4     5     8
 -0.0000000027     3     4     6     9
 0.0043418611     3     4     7     9
 -0.0001255011     3     4     9     1
 -0.0000000003     3     4     9     6
 0.0002502600     3     4     9     7
 0.0000000071     3     5     1     9
 -0.0000715150     3     5     2     4
 0.0013528906     3     5     4     2
 0.0000000093     3     5     4     3
 -0.0000000028     3     5     4     8
 -0.0000000093     3     5     5     2
 -0.2652351665     3     5     5     3
 0.0009853387     3     5     5     8
 0.0008185168     3     5     6     9
 -0.0000000056     3     5     7     9
 -0.0000000003     3     5     9     1
 0.0002166866     3     5     9     6
 0.0000000003     3     5     9     7
 -0.0023955672     3     6     1     2
 -0.0000000130     3     6     1     3
 0.0000000059     3     6     1     8
 0.0000011514     3     6     2     1
 -0.0007796143     3     6     2     7
 -0.0000000013     3     6     4     9
 0.0002199537     3     6     5     9
 -0.0000000103     3     6     6     2
 -0.2576792460     3     6     6     3
 0.0002807155     3     6     6     8
 0.0010246873     3     6     7     2
 0.0000000103     3     6     7     3
 -0.0000000007     3     6     7     8
 0.0000000016     3     6     8     1
 0.0000000003     3     6     9     4
 -0.0002166866     3     6     9     5
 0.0000000130     3     7     1     2
 -0.0023861938     3     7     1     3
 -0.0022483951     3     7     1     8
 0.0007796143     3     7     2     6
 0.0028769930     3     7     4     9
 -0.0000000051     3     7     5     9
 0.0027718154     3     7     6     2
 0.0000000103     3     7     6     3
 -0.0000000009     3     7     6     8
 0.0000000103     3     7     7     2
 -0.2614643177     3     7     7     3
 -0.0003411904     3     7     7     8
 -0.0005938396     3     7     8     1
 -0.0002502600     3     7     9     4
 -0.0000000003     3     7     9     5
 0.0000006724     3     8     1     1
 -0.0000000059     3     8     1     6
 0.0022483951     3     8     1     7
 -0.0000000202     3     8     2     2
 0.0009269826     3     8     4     4
 0.0000000028     3     8     4     5
 0.0000000029     3     8     5     4
 -0.0009853387     3     8     5     5
 -0.0000000033     3     8     6     1
 -0.0002807155     3     8     6     6
 0.0000000009     3     8     6     7
 0.0012045997     3     8     7     1
 0.0000000007     3     8     7     6
 0.0003411904     3     8     7     7
 -0.1892658257     3     8     8     3
 0.0009266918     3     8     9     9
 -0.0030368728     3     9     1     4
 -0.0000000071     3     9     1     5
 -0.0032273785     3     9     4     1
 0.0000000013     3     9     4     6
 -0.0028769930     3     9     4     7
 -0.0000000075     3     9     5     1
 -0.0002199537     3     9     5     6
 0.0000000051     3     9     5     7
 0.0000000027     3     9     6     4
 -0.0008185168     3     9     6     5
 -0.0043418611     3     9     7     4
 0.0000000056     3     9     7     5
 0.0000000298     3     9     9     2
 -0.1848337661     3     9     9     3
 -0.0009266918     3     9     9     8
 -0.2140812145     4     1     1     4
 0.0000000077     4     1     2     9
 -0.0032273785     4     1     3     9
 0.0000157455     4     1     5     6
 -0.0000000002     4     1     6     4
 -0.0268238333     4     1     6     5
 0.0268706994     4     1     7     4
 -0.0000000002     4     1     7     5
 0.0377213329     4     1     8     9
 0.0000000072     4     1     9     2
 -0.0030368728     4     1     9     3
 0.0379882110     4     1     9     8
 0.0000000003     4     2     1     9
 -0.2652361541     4     2     2     4
 -0.0000000093     4     2     2     5
 0.0000000094     4     2     3     4
 0.0013528906     4     2     3     5
 -0.0000715150     4     2     5     3
 0.0000019289     4     2     5     8
 -0.0001061368     4     2     6     9
 -0.0000000007     4     2     7     9
 0.0000000026     4     2     8     4
 -0.0010427410     4     2     8     5
 -0.0000000072     4     2     9     1
 -0.0012687029     4     2     9     6
 -0.0000000121     4     2     9     7
 -0.0001255011     4     3     1     9
 0.0000000094     4     3     2     4
 0.0020832077     4     3     2     5
 -0.2686776894     4     3     3     4
 0.0000000093     4     3     3     5
 0.0000715150     4     3     5     2
 -0.0000000003     4     3     6     9
 0.0002502600     4     3     7     9
 -0.0009269826     4     3     8     4
 -0.0000000029     4     3     8     5
 0.0030368728     4     3     9     1
 -0.0000000027     4     3     9     6
 0.0043418611     4     3     9     7
 0.2140812145     4     4     1     1
 0.0000000002     4     4     1     6
 -0.0268706994     4     4     1     7
 0.2652361541     4     4     2     2
 -0.0000000094     4     4     2     3
 -0.0000000026     4     4     2     8
 -0.0000000094     4     4     3     2
 0.2686776894     4     4     3     3
 0.0009269826     4     4     3     8
 0.2505466726     4     4     5     5
 0.0000000002     4     4     6     1
 0.2299771617     4     4     6     6
 -0.0000000001     4     4     6     7
 -0.0268706994     4     4     7     1
 -0.0000000001     4     4     7     6
 0.2390049050     4     4     7     7
 -0.0000000026     4     4     8     2
 0.0009269826     4     4     8     3
 0.1877379545     4     4     8     8
 0.1844916302     4     4     9     9
 0.0268396992     4     5     1     6
 0.0000000002     4     5     1     7
 0.0000000093     4     5     2     2
 -0.0020832077     4     5     2     3
 0.0009844259     4     5     2     8
 -0.0013528906     4     5     3     2
 -0.0000000093     4     5     3     3
 0.0000000028     4     5     3     8
 -0.2505466726     4     5     5     4
 0.0268238333     4     5     6     1
 0.0279363953     4     5     6     7
 0.0000000002     4     5     7     1
 -0.0188717846     4     5     7     6
 0.0010427410     4     5     8     2
 0.0000000029     4     5     8     3
 0.0000000052     4     5     9     9
 -0.0000000002     4     6     1     4
 -0.0268396992     4     6     1     5
 0.0007154448     4     6     2     9
 0.0000000013     4     6     3     9
 -0.0000157455     4     6     5     1
 0.0455973762     4     6     5     7
 -0.2299771617     4     6     6     4
 0.0000000001     4     6     7     4
 0.0188717846     4     6     7     5
 -0.0000000087     4     6     8     9
 0.0012687029     4     6     9     2
 0.0000000027     4     6     9     3
 -0.0000000086     4     6     9     8
 0.0268706994     4     7     1     4
 -0.0000000002     4     7     1     5
 0.0000000079     4     7     2     9
 -0.0028769930     4     7     3     9
 -0.0455973762     4     7     5     6
 0.0000000001     4     7     6     4
 -0.0279363953     4     7     6     5
 -0.2390049050     4     7     7     4
 0.0251464421     4     7     8     9
 0.0000000121     4     7     9     2
 -0.0043418611     4     7     9     3
 0.0249191936     4     7     9     8
 -0.0002990527     4     8     1     9
 0.0000000026     4     8     2     4
 -0.0009844259     4     8     2     5
 -0.0009269826     4     8     3     4
 -0.0000000028     4     8     3     5
 -0.0000019289     4     8     5     2
 0.0001251743     4     8     7     9
 -0.1877379545     4     8     8     4
 -0.0379882110     4     8     9     1
 0.0000000086     4     8     9     6
 -0.0249191936     4     8     9     7
 -0.0000000003     4     9     1     2
 0.0001255011     4     9     1     3
 0.0002990527     4     9     1     8
 -0.0000000077     4     9     2     1
 -0.0007154448     4     9     2     6
 -0.0000000079     4     9     2     7
 0.0032273785     4     9     3     1
 -0.0000000013     4     9     3     6
 0.0028769930     4     9     3     7
 0.0001061368     4     9     6     2
 0.0000000003     4     9     6     3
 0.0000000007     4     9     7     2
 -0.0002502600     4     9     7     3
 -0.0001251743     4     9     7     8
 -0.0377213329     4     9     8     1
 0.0000000087     4     9     8     6
 -0.0251464421     4     9     8     7
 -0.1844916302     4     9     9     4
 -0.0000000052     4     9     9     5
 -0.2140811829     5     1     1     5
 -0.0031712349     5     1     2     9
 -0.0000000075     5     1     3     9
 -0.0000157455     5     1     4     6
 -0.0268396992     5     1     6     4
 0.0000000002     5     1     6     5
 -0.0000000002     5     1     7     4
 -0.0268548064     5     1     7     5
 0.0000000128     5     1     8     9
 -0.0030223569     5     1     9     2
 -0.0000000071     5     1     9     3
 0.0000000129     5     1     9     8
 -0.0001257805     5     2     1     9
 -0.0000000093     5     2     2     4
 -0.2686658412     5     2     2     5
 0.0020832077     5     2     3     4
 -0.0000000093     5     2     3     5
 0.0000715150     5     2     4     3
 -0.0000019289     5     2     4     8
 -0.0000000007     5     2     6     9
 0.0000732983     5     2     7     9
 -0.0009844259     5     2     8     4
 -0.0000000027     5     2     8     5
 0.0030223569     5     2     9     1
 -0.0000000037     5     2     9     6
 -0.0022397155     5     2     9     7
 -0.0000000003     5     3     1     9
 0.0013528906     5     3     2     4
 -0.0000000093     5     3     2     5
 0.0000000093     5     3     3     4
 -0.2652351665     5     3     3     5
 -0.0000715150     5     3     4     2
 0.0002166866     5     3     6     9
 0.0000000003     5     3     7     9
 -0.0000000028     5     3     8     4
 0.0009853387     5     3     8     5
 0.0000000071     5     3     9     1
 0.0008185168     5     3     9     6
 -0.0000000056     5     3     9     7
 0.0268238333     5     4     1     6
 0.0000000002     5     4     1     7
 0.0000000093     5     4     2     2
 -0.0013528906     5     4     2     3
 0.0010427410     5     4     2     8
 -0.0020832077     5     4     3     2
 -0.0000000093     5     4     3     3
 0.0000000029     5     4     3     8
 -0.2505466726     5     4     4     5
 0.0268396992     5     4     6     1
 -0.0188717846     5     4     6     7
 0.0000000002     5     4     7     1
 0.0279363953     5     4     7     6
 0.0009844259     5     4     8     2
 0.0000000028     5     4     8     3
 0.0000000052     5     4     9     9
 0.2140811829     5     5     1     1
 -0.0000000002     5     5     1     6
 0.0268548064     5     5     1     7
 0.2686658412     5     5     2     2
 0.0000000093     5     5     2     3
 0.0000000027     5     5     2     8
 0.0000000093     5     5     3     2
 0.2652351665     5     5     3     3
 -0.0009853387     5     5     3     8
 0.2505466726     5     5     4     4
 -0.0000000002     5     5     6     1
 0.2390632921     5     5     6     6
 0.0268548064     5     5     7     1
 0.2299618266     5     5     7     7
 0.0000000027     5     5     8     2
 -0.0009853387     5     5     8     3
 0.1877393129     5     5     8     8
 0.1693100276     5     5     9     9
 -0.0268238333     5     6     1     4
 0.0000000002     5     6     1     5
 0.0000000015     5     6     2     9
 -0.0002199537     5     6     3     9
 0.0000157455     5     6     4     1
 -0.0455973762     5     6     4     7
 -0.2390632921     5     6     6     5
 -0.0279363953     5     6     7     4
 -0.0251783029     5     6     8     9
 0.0000000037     5     6     9     2
 -0.0008185168     5     6     9     3
 -0.0249548221     5     6     9     8
 -0.0000000002     5     7     1     4
 -0.0268548064     5     7     1     5
 0.0019616280     5     7     2     9
 0.0000000051     5     7     3     9
 0.0455973762     5     7     4     6
 0.0188717846     5     7     6     4
 -0.2299618266     5     7     7     5
 -0.0000000087     5     7     8     9
 0.0022397155     5     7     9     2
 0.0000000056     5     7     9     3
 -0.0000000086     5     7     9     8
 -0.0000000001     5     8     1     9
 -0.0010427410     5     8     2     4
 -0.0000000027     5     8     2     5
 -0.0000000029     5     8     3     4
 0.0009853387     5     8     3     5
 0.0000019289     5     8     4     2
 -0.0001225482     5     8     6     9
 -0.1877393129     5     8     8     5
 -0.0000000129     5     8     9     1
 0.0249548221     5     8     9     6
 0.0000000086     5     8     9     7
 0.0001257805     5     9     1     2
 0.0000000003     5     9     1     3
 0.0000000001     5     9     1     8
 0.0031712349     5     9     2     1
 -0.0000000015     5     9     2     6
 -0.0019616280     5     9     2     7
 0.0000000075     5     9     3     1
 0.0002199537     5     9     3     6
 -0.0000000051     5     9     3     7
 0.0000000007     5     9     6     2
 -0.0002166866     5     9     6     3
 0.0001225482     5     9     6     8
 -0.0000732983     5     9     7     2
 -0.0000000003     5     9     7     3
 -0.0000000128     5     9     8     1
 0.0251783029     5     9     8     6
 0.0000000087     5     9     8     7
 -0.0000000052     5     9     9     4
 -0.1693100276     5     9     9     5
 -0.2512868015     6     1     1     6
 -0.0000000130     6     1     2     2
 0.0023955672     6     1     2     3
 -0.0012046000     6     1     2     8
 0.0023992547     6     1     3     2
 0.0000000130     6     1     3     3
 -0.0000000033     6     1     3     8
 0.0000000002     6     1     4     4
 0.0268238333     6     1     4     5
 0.0268396992     6     1     5     4
 -0.0000000002     6     1     5     5
 -0.0021655731     6     1     8     2
 -0.0000000059     6     1     8     3
 -0.0000000057     6     1     9     9
 -0.0000011514     6     2     1     3
 0.0005937916     6     2     1     8
 0.0000000130     6     2     2     1
 -0.2614781357     6     2     2     6
 -0.0000000103     6     2     2     7
 -0.0023992547     6     2     3     1
 -0.0000000103     6     2     3     6
 0.0027718154     6     2     3     7
 0.0001061368     6     2     4     9
 0.0000000007     6     2     5     9
 0.0007796143     6     2     7     3
 0.0000017555     6     2     7     8
 0.0021655731     6     2     8     1
 -0.0000000008     6     2     8     6
 -0.0002606600     6     2     8     7
 -0.0007154448     6     2     9     4
 -0.0000000015     6     2     9     5
 0.0000011514     6     3     1     2
 0.0000000016     6     3     1     8
 -0.0023955672     6     3     2     1
 -0.0000000103     6     3     2     6
 0.0010246873     6     3     2     7
 -0.0000000130     6     3     3     1
 -0.2576792460     6     3     3     6
 0.0000000103     6     3     3     7
 0.0000000003     6     3     4     9
 -0.0002166866     6     3     5     9
 -0.0007796143     6     3     7     2
 0.0000000059     6     3     8     1
 0.0002807155     6     3     8     6
 -0.0000000007     6     3     8     7
 -0.0000000013     6     3     9     4
 0.0002199537     6     3     9     5
 -0.0000157455     6     4     1     5
 0.0012687029     6     4     2     9
 0.0000000027     6     4     3     9
 -0.0000000002     6     4     4     1
 -0.2299771617     6     4     4     6
 0.0000000001     6     4     4     7
 -0.0268396992     6     4     5     1
 0.0188717846     6     4     5     7
 0.0455973762     6     4     7     5
 -0.0000000086     6     4     8     9
 0.0007154448     6     4     9     2
 0.0000000013     6     4     9     3
 -0.0000000087     6     4     9     8
 0.0000157455     6     5     1     4
 0.0000000037     6     5     2     9
 -0.0008185168     6     5     3     9
 -0.0268238333     6     5     4     1
 -0.0279363953     6     5     4     7
 0.0000000002     6     5     5     1
 -0.2390632921     6     5     5     6
 -0.0455973762     6     5     7     4
 -0.0249548221     6     5     8     9
 0.0000000015     6     5     9     2
 -0.0002199537     6     5     9     3
 -0.0251783029     6     5     9     8
 0.2512868015     6     6     1     1
 0.2614781357     6     6     2     2
 0.0000000103     6     6     2     3
 0.0000000008     6     6     2     8
 0.0000000103     6     6     3     2
 0.2576792460     6     6     3     3
 -0.0002807155     6     6     3     8
 0.2299771617     6     6     4     4
 0.2390632921     6     6     5     5
 0.2441618284     6     6     7     7
 0.0000000008     6     6     8     2
 -0.0002807155     6     6     8     3
 0.1840721935     6     6     8     8
 0.1696101994     6     6     9     9
 0.0000000103     6     7     2     2
 -0.0010246873     6     7     2     3
 0.0003211699     6     7     2     8
 -0.0027718154     6     7     3     2
 -0.0000000103     6     7     3     3
 0.0000000009     6     7     3     8
 -0.0000000001     6     7     4     4
 0.0279363953     6     7     4     5
 -0.0188717846     6     7     5     4
 -0.2441618284     6     7     7     6
 0.0002606600     6     7     8     2
 0.0000000007     6     7     8     3
 0.0000000032     6     7     9     9
 -0.0005937916     6     8     1     2
 -0.0000000016     6     8     1     3
 0.0012046000     6     8     2     1
 -0.0000000008     6     8     2     6
 -0.0003211699     6     8     2     7
 0.0000000033     6     8     3     1
 0.0002807155     6     8     3     6
 -0.0000000009     6     8     3     7
 0.0001225482     6     8     5     9
 -0.0000017555     6     8     7     2
 -0.1840721935     6     8     8     6
 0.0000000087     6     8     9     4
 0.0251783029     6     8     9     5
 -0.0012687029     6     9     2     4
 -0.0000000037     6     9     2     5
 -0.0000000027     6     9     3     4
 0.0008185168     6     9     3     5
 -0.0001061368     6     9     4     2
 -0.0000000003     6     9     4     3
 -0.0000000007     6     9     5     2
 0.0002166866     6     9     5     3
 -0.0001225482     6     9     5     8
 0.0000000086     6     9     8     4
 0.0249548221     6     9     8     5
 0.0000000057     6     9     9     1
 -0.1696101994     6     9     9     6
 -0.0000000032     6     9     9     7
 -0.2512867944     7     1     1     7