&FCI NORB= 19,NELEC= 14,MS2=0,
 ORBSYM=1,1,1,1,1,1,1,1,1,1,1,1,1,1,1,1,1,1,1
 ISYM=1,
&END
 0.1727025188     1     1     2     2
 -0.0000913747     1     1     2     4
 0.0019381054     1     1     2    10
 0.0015854746     1     1     2    16
 -0.0015665954     1     1     2    18
 0.5438360373     1     1     3     3
 -0.0000000052     1     1     3     4
 -0.0021666489     1     1     3     5
 -0.0000000003     1     1     3    10
 -0.0727783654     1     1     3    11
 0.0000000015     1     1     3    16
 0.1467796877     1     1     3    17
 0.0000000016     1     1     3    18
 -0.0000913747     1     1     4     2
 -0.0000000052     1     1     4     3
 0.5477783141     1     1     4     4
 -0.0000000006     1     1     4     5
 0.0189585369     1     1     4    10
 0.0000000010     1     1     4    11
 -0.1238547161     1     1     4    16
 -0.0000000021     1     1     4    17
 -0.1056260734     1     1     4    18
 -0.0021666489     1     1     5     3
 -0.0000000006     1     1     5     4
 0.5053280443     1     1     5     5
 0.0000000047     1     1     5    10
 0.1730618942     1     1     5    11
 0.0000000019     1     1     5    16
 0.0957628029     1     1     5    17
 -0.0000000017     1     1     5    18
 0.5142496945     1     1     6     6
 -0.0000000009     1     1     6     8
 -0.0000000048     1     1     6     9
 -0.0000319750     1     1     6    12
 -0.2038655587     1     1     6    13
 0.0000000030     1     1     6    15
 0.5142496945     1     1     7     7
 0.0000000048     1     1     7     8
 -0.0000000009     1     1     7     9
 -0.2038655587     1     1     7    12
 0.0000319750     1     1     7    13
 -0.0000000026     1     1     7    14
 0.0000000002     1     1     7    15
 -0.0000000009     1     1     8     6
 0.0000000048     1     1     8     7
 0.5198378633     1     1     8     8
 -0.0000000031     1     1     8    12
 0.0000000006     1     1     8    13
 -0.2021568680     1     1     8    14
 -0.0304303431     1     1     8    15
 -0.0000000048     1     1     9     6
 -0.0000000009     1     1     9     7
 0.5198378633     1     1     9     9
 0.0000000005     1     1     9    12
 0.0000000027     1     1     9    13
 0.0304303431     1     1     9    14
 -0.2021568680     1     1     9    15
 0.0019381054     1     1    10     2
 -0.0000000003     1     1    10     3
 0.0189585369     1     1    10     4
 0.0000000047     1     1    10     5
 0.5355210670     1     1    10    10
 0.0000000032     1     1    10    11
 0.1442359685     1     1    10    16
 0.0000000009     1     1    10    17
 -0.1418468090     1     1    10    18
 -0.0727783654     1     1    11     3
 0.0000000010     1     1    11     4
 0.1730618942     1     1    11     5
 0.0000000032     1     1    11    10
 0.5266816871     1     1    11    11
 0.0000000019     1     1    11    16
 0.0178700972     1     1    11    17
 -0.0000000039     1     1    11    18
 -0.0000319750     1     1    12     6
 -0.2038655587     1     1    12     7
 -0.0000000031     1     1    12     8
 0.0000000005     1     1    12     9
 0.5051036706     1     1    12    12
 0.0000000048     1     1    12    14
 -0.0000000002     1     1    12    15
 -0.2038655587     1     1    13     6
 0.0000319750     1     1    13     7
 0.0000000006     1     1    13     8
 0.0000000027     1     1    13     9
 0.5051036706     1     1    13    13
 -0.0000000002     1     1    13    14
 -0.0000000047     1     1    13    15
 -0.0000000026     1     1    14     7
 -0.2021568680     1     1    14     8
 0.0304303431     1     1    14     9
 0.0000000048     1     1    14    12
 -0.0000000002     1     1    14    13
 0.5018067692     1     1    14    14
 0.0000000030     1     1    15     6
 0.0000000002     1     1    15     7
 -0.0304303431     1     1    15     8
 -0.2021568680     1     1    15     9
 -0.0000000002     1     1    15    12
 -0.0000000047     1     1    15    13
 0.5018067692     1     1    15    15
 0.0015854746     1     1    16     2
 0.0000000015     1     1    16     3
 -0.1238547161     1     1    16     4
 0.0000000019     1     1    16     5
 0.1442359685     1     1    16    10
 0.0000000019     1     1    16    11
 0.4610945110     1     1    16    16
 0.0000000041     1     1    16    17
 -0.0291531373     1     1    16    18
 0.1467796877     1     1    17     3
 -0.0000000021     1     1    17     4
 0.0957628029     1     1    17     5
 0.0000000009     1     1    17    10
 0.0178700972     1     1    17    11
 0.0000000041     1     1    17    16
 0.4424234645     1     1    17    17
 0.0000000010     1     1    17    18
 -0.0015665954     1     1    18     2
 0.0000000016     1     1    18     3
 -0.1056260734     1     1    18     4
 -0.0000000017     1     1    18     5
 -0.1418468090     1     1    18    10
 -0.0000000039     1     1    18    11
 -0.0291531373     1     1    18    16
 0.0000000010     1     1    18    17
 0.4880284779     1     1    18    18
 0.4688853354     1     1    19    19
 -0.1727025188     1     2     2     1
 -0.0000312230     1     2     2     3
 0.0018605350     1     2     2     5
 0.0020455495     1     2     2    11
 0.0009568607     1     2     2    17
 0.3731228590     1     2     3     4
 0.0155933369     1     2     3    10
 -0.1107879334     1     2     3    16
 -0.1120873158     1     2     3    18
 0.0000913747     1     2     4     1
 0.3731229238     1     2     4     3
 0.0407393919     1     2     4     5
 -0.0717230376     1     2     4    11
 0.1501530435     1     2     4    17
 0.0407420200     1     2     5     4
 -0.3381238722     1     2     5    10
 -0.1387332250     1     2     5    16
 0.1139001591     1     2     5    18
 -0.0000000007     1     2     6     6
 -0.0000000003     1     2     6     7
 0.0628983502     1     2     6     8
 0.3414511920     1     2     6     9
 0.0000000001     1     2     6    12
 0.0000000003     1     2     6    13
 -0.0064344240     1     2     6    14
 -0.1963401510     1     2     6    15
 -0.0000000003     1     2     7     6
 0.0000000008     1     2     7     7
 -0.3414511920     1     2     7     8
 0.0628983502     1     2     7     9
 -0.0000000003     1     2     7    12
 0.0000000001     1     2     7    13
 0.1963401510     1     2     7    14
 -0.0064344240     1     2     7    15
 0.0628945111     1     2     8     6
 -0.3414303512     1     2     8     7
 -0.0000000008     1     2     8     8
 0.2030360731     1     2     8    12
 -0.0374339792     1     2     8    13
 0.0000000003     1     2     8    14
 0.3414303512     1     2     9     6
 0.0628945111     1     2     9     7
 0.0000000007     1     2     9     9
 -0.0374339792     1     2     9    12
 -0.2030360731     1     2     9    13
 -0.0000000003     1     2     9    15
 -0.0019381054     1     2    10     1
 0.0155919007     1     2    10     3
 -0.3380821015     1     2    10     5
 -0.2238743885     1     2    10    11
 -0.0676486791     1     2    10    17
 -0.0717201613     1     2    11     4
 -0.2239208912     1     2    11    10
 -0.1355557047     1     2    11    16
 0.2790396682     1     2    11    18
 0.0000000001     1     2    12     6
 -0.0000000003     1     2    12     7
 0.2030595472     1     2    12     8
 -0.0374383071     1     2    12     9
 0.0000000001     1     2    12    12
 -0.3355866167     1     2    12    14
 0.0110504755     1     2    12    15
 0.0000000003     1     2    13     6
 0.0000000001     1     2    13     7
 -0.0374383071     1     2    13     8
 -0.2030595472     1     2    13     9
 -0.0000000001     1     2    13    13
 0.0110504755     1     2    13    14
 0.3355866167     1     2    13    15
 -0.0064335914     1     2    14     6
 0.1963147453     1     2    14     7
 0.0000000003     1     2    14     8
 -0.3355579577     1     2    14    12
 0.0110495317     1     2    14    13
 -0.0000000002     1     2    14    14
 -0.1963147453     1     2    15     6
 -0.0064335914     1     2    15     7
 -0.0000000003     1     2    15     9
 0.0110495317     1     2    15    12
 0.3355579577     1     2    15    13
 0.0000000002     1     2    15    15
 -0.0015854746     1     2    16     1
 -0.1107890677     1     2    16     3
 -0.1386997950     1     2    16     5
 -0.1355185370     1     2    16    11
 -0.2879411392     1     2    16    17
 0.1501544271     1     2    17     4
 -0.0676707235     1     2    17    10
 -0.2879587938     1     2    17    16
 -0.0689949978     1     2    17    18
 0.0015665954     1     2    18     1
 -0.1120862612     1     2    18     3
 0.1138669632     1     2    18     5
 0.2790026923     1     2    18    11
 -0.0690125458     1     2    18    17
 -0.0000000002     1     2    19    19
 0.0000312230     1     3     2     2
 -0.0000000648     1     3     2     4
 0.0000014362     1     3     2    10
 0.0000011343     1     3     2    16
 -0.0000010546     1     3     2    18
 -0.5438360373     1     3     3     1
 0.0010860069     1     3     3     5
 0.0015750122     1     3     3    11
 0.0000747652     1     3     3    17
 0.0000000052     1     3     4     1
 -0.3731229238     1     3     4     2
 -0.0001003242     1     3     4     4
 0.0017071909     1     3     4    10
 0.0018460681     1     3     4    16
 -0.0009504516     1     3     4    18
 0.0021666489     1     3     5     1
 -0.0173101642     1     3     5     5
 -0.0000000001     1     3     5    10
 -0.0206383828     1     3     5    11
 -0.0000000001     1     3     5    16
 -0.0096812459     1     3     5    17
 0.0000000001     1     3     5    18
 -0.0184351122     1     3     6     6
 0.0000000001     1     3     6     9
 0.0000035983     1     3     6    12
 0.0229422162     1     3     6    13
 -0.0000000001     1     3     6    15
 -0.0184351122     1     3     7     7
 -0.0000000001     1     3     7     8
 0.0229422162     1     3     7    12
 -0.0000035983     1     3     7    13
 0.0000000001     1     3     7    14
 -0.0000000001     1     3     8     7
 -0.0186729479     1     3     8     8
 0.0000000002     1     3     8    12
 0.0225858520     1     3     8    14
 0.0033998114     1     3     8    15
 0.0000000001     1     3     9     6
 -0.0186729479     1     3     9     9
 -0.0000000001     1     3     9    13
 -0.0033998114     1     3     9    14
 0.0225858520     1     3     9    15
 0.0000000003     1     3    10     1
 -0.0155919007     1     3    10     2
 0.0009112520     1     3    10     4
 -0.0000000001     1     3    10     5
 -0.0193847187     1     3    10    10
 -0.0000000001     1     3    10    11
 -0.0165955498     1     3    10    16
 -0.0000000001     1     3    10    17
 0.0161097370     1     3    10    18
 0.0727783654     1     3    11     1
 -0.0139968177     1     3    11     5
 -0.0000000001     1     3    11    10
 -0.0172644099     1     3    11    11
 -0.0000000001     1     3    11    16
 -0.0078459914     1     3    11    17
 0.0000000001     1     3    11    18
 0.0000024240     1     3    12     6
 0.0154548604     1     3    12     7
 0.0000000002     1     3    12     8
 -0.0198419123     1     3    12    12
 -0.0000000002     1     3    12    14
 0.0154548604     1     3    13     6
 -0.0000024240     1     3    13     7
 -0.0000000001     1     3    13     9
 -0.0198419123     1     3    13    13
 0.0000000002     1     3    13    15
 0.0000000001     1     3    14     7
 0.0153901185     1     3    14     8
 -0.0023166494     1     3    14     9
 -0.0000000002     1     3    14    12
 -0.0196479218     1     3    14    14
 -0.0000000001     1     3    15     6
 0.0023166494     1     3    15     8
 0.0153901185     1     3    15     9
 0.0000000002     1     3    15    13
 -0.0196479218     1     3    15    15
 -0.0000000015     1     3    16     1
 0.1107890677     1     3    16     2
 0.0005458546     1     3    16     4
 -0.0114225567     1     3    16    10
 -0.0000000001     1     3    16    11
 -0.0104766412     1     3    16    16
 0.0094826793     1     3    16    18
 -0.1467796877     1     3    17     1
 -0.0062370376     1     3    17     5
 -0.0074249012     1     3    17    11
 -0.0041477977     1     3    17    17
 -0.0000000016     1     3    18     1
 0.1120862612     1     3    18     2
 -0.0004829384     1     3    18     4
 0.0106390617     1     3    18    10
 0.0000000001     1     3    18    11
 0.0091423149     1     3    18    16
 -0.0094885007     1     3    18    18
 -0.0027481309     1     3    19    19
 0.0000913747     1     4     2     1
 0.0000000648     1     4     2     3
 -0.0000026281     1     4     2     5
 -0.0000028763     1     4     2    11
 -0.0000013836     1     4     2    17
 0.0000000052     1     4     3     1
 -0.3731228590     1     4     3     2
 0.0007959389     1     4     3    10
 0.0013002135     1     4     3    16
 -0.0004675132     1     4     3    18
 -0.5477783141     1     4     4     1
 0.0001003242     1     4     4     3
 0.0000623834     1     4     4     5
 0.0000392297     1     4     4    11
 -0.0006312937     1     4     4    17
 0.0000000006     1     4     5     1
 -0.0407420200     1     4     5     2
 0.0000000001     1     4     5     5
 0.0183776796     1     4     5    10
 0.0000000001     1     4     5    11
 0.0154394662     1     4     5    16
 -0.0155837294     1     4     5    18
 0.0000000001     1     4     6     6
 -0.0033674254     1     4     6     8
 -0.0182804704     1     4     6     9
 -0.0000000002     1     4     6    13
 0.0007465831     1     4     6    14
 0.0227812537     1     4     6    15
 0.0000000001     1     4     7     7
 0.0182804704     1     4     7     8
 -0.0033674254     1     4     7     9
 -0.0000000001     1     4     7    12
 -0.0227812537     1     4     7    14
 0.0007465831     1     4     7    15
 -0.0034028978     1     4     8     6
 0.0184730368     1     4     8     7
 0.0000000001     1     4     8     8
 -0.0230439872     1     4     8    12
 0.0042486447     1     4     8    13
 -0.0000000002     1     4     8    14
 -0.0184730368     1     4     9     6
 -0.0034028978     1     4     9     7
 0.0000000001     1     4     9     9
 0.0042486447     1     4     9    12
 0.0230439872     1     4     9    13
 -0.0000000001     1     4     9    15
 -0.0189585369     1     4    10     1
 -0.0009112520     1     4    10     3
 0.0184002861     1     4    10     5
 0.0000000001     1     4    10    10
 0.0223192473     1     4    10    11
 0.0000000001     1     4    10    16
 0.0098009705     1     4    10    17
 -0.0000000001     1     4    10    18
 -0.0000000010     1     4    11     1
 0.0717201613     1     4    11     2
 0.0000000001     1     4    11     5
 0.0156426883     1     4    11    10
 0.0000000002     1     4    11    11
 0.0130932320     1     4    11    16
 -0.0139563746     1     4    11    18
 -0.0000000001     1     4    12     7
 -0.0157245576     1     4    12     8
 0.0028991536     1     4    12     9
 0.0000000002     1     4    12    12
 0.0201235952     1     4    12    14
 -0.0006626465     1     4    12    15
 -0.0000000002     1     4    13     6
 0.0028991536     1     4    13     8
 0.0157245576     1     4    13     9
 0.0000000002     1     4    13    13
 -0.0006626465     1     4    13    14
 -0.0201235952     1     4    13    15
 0.0005066307     1     4    14     6
 -0.0154593388     1     4    14     7
 -0.0000000002     1     4    14     8
 0.0198280453     1     4    14    12
 -0.0006529144     1     4    14    13
 0.0000000002     1     4    14    14
 0.0154593388     1     4    15     6
 0.0005066307     1     4    15     7
 -0.0000000001     1     4    15     9
 -0.0006529144     1     4    15    12
 -0.0198280453     1     4    15    13
 0.0000000002     1     4    15    15
 0.1238547161     1     4    16     1
 -0.0005458546     1     4    16     3
 0.0105608359     1     4    16     5
 0.0000000001     1     4    16    10
 0.0129814965     1     4    16    11
 0.0000000001     1     4    16    16
 0.0060004300     1     4    16    17
 -0.0000000001     1     4    16    18
 0.0000000021     1     4    17     1
 -0.1501544271     1     4    17     2
 0.0068912587     1     4    17    10
 0.0000000001     1     4    17    11
 0.0062110936     1     4    17    16
 -0.0056845443     1     4    17    18
 0.1056260734     1     4    18     1
 0.0004829384     1     4    18     3
 -0.0098224182     1     4    18     5
 -0.0125659871     1     4    18    11
 -0.0000000001     1     4    18    16
 -0.0049007234     1     4    18    17
 0.0000000001     1     4    18    18
 -0.0018605350     1     5     2     2
 0.0000026281     1     5     2     4
 -0.0000417707     1     5     2    10
 -0.0000334300     1     5     2    16
 0.0000331959     1     5     2    18
 0.0021666489     1     5     3     1
 -0.0010860069     1     5     3     3
 -0.0066415651     1     5     3    11
 -0.0000000001     1     5     3    16
 -0.0034442083     1     5     3    17
 0.0000000001     1     5     3    18
 0.0000000006     1     5     4     1
 -0.0407393919     1     5     4     2
 -0.0000623834     1     5     4     4
 -0.0000226065     1     5     4    10
 0.0048786303     1     5     4    16
 -0.0057613112     1     5     4    18
 -0.5053280443     1     5     5     1
 0.0173101642     1     5     5     3
 -0.0000000001     1     5     5     4
 -0.0031202268     1     5     5    11
 0.0086793443     1     5     5    17
 -0.0017095231     1     5     6     6
 0.0000001413     1     5     6    12
 0.0009008290     1     5     6    13
 -0.0017095231     1     5     7     7
 0.0009008290     1     5     7    12
 -0.0000001413     1     5     7    13
 -0.0017303805     1     5     8     8
 0.0013323360     1     5     8    14
 0.0002005544     1     5     8    15
 -0.0017303805     1     5     9     9
 -0.0002005544     1     5     9    14
 0.0013323360     1     5     9    15
 -0.0000000047     1     5    10     1
 0.3380821015     1     5    10     2
 0.0000000001     1     5    10     3
 -0.0184002861     1     5    10     4
 -0.0037387739     1     5    10    10
 0.0056609522     1     5    10    16
 0.0093423735     1     5    10    18
 -0.1730618942     1     5    11     1
 0.0139968177     1     5    11     3
 -0.0000000001     1     5    11     4
 -0.0098343516     1     5    11    11
 0.0113099518     1     5    11    17
 0.0000000001     1     5    11    18
 0.0000001567     1     5    12     6
 0.0009988571     1     5    12     7
 -0.0021783684     1     5    12    12
 0.0009988571     1     5    13     6
 -0.0000001567     1     5    13     7
 -0.0021783684     1     5    13    13
 0.0008978346     1     5    14     8
 -0.0001351496     1     5    14     9
 -0.0017673205     1     5    14    14
 0.0001351496     1     5    15     8
 0.0008978346     1     5    15     9
 -0.0017673205     1     5    15    15
 -0.0000000019     1     5    16     1
 0.1386997950     1     5    16     2
 -0.0105608359     1     5    16     4
 -0.0015241640     1     5    16    10
 -0.0000000001     1     5    16    11
 0.0074683312     1     5    16    16
 0.0000000001     1     5    16    17
 0.0070029047     1     5    16    18
 -0.0957628029     1     5    17     1
 0.0062370376     1     5    17     3
 -0.0012875176     1     5    17    11
 0.0000000001     1     5    17    16
 0.0058402476     1     5    17    17
 0.0000000017     1     5    18     1
 -0.1138669632     1     5    18     2
 0.0098224182     1     5    18     4
 0.0012631073     1     5    18    10
 0.0000000001     1     5    18    11
 -0.0063738835     1     5    18    16
 -0.0094897197     1     5    18    18
 -0.0009665524     1     5    19    19
 0.0000038391     1     6     2     8
 0.0000208408     1     6     2     9
 -0.0000008326     1     6     2    14
 -0.0000254057     1     6     2    15
 0.0000011743     1     6     3    12
 0.0074873558     1     6     3    13
 0.0000354724     1     6     4     8
 0.0001925664     1     6     4     9
 0.0002399524     1     6     4    14
 0.0073219149     1     6     4    15
 -0.0000000154     1     6     5    12
 -0.0000980281     1     6     5    13
 -0.5142496945     1     6     6     1
 0.0000000007     1     6     6     2
 0.0184351122     1     6     6     3
 -0.0000000001     1     6     6     4
 0.0017095231     1     6     6     5
 -0.0037812883     1     6     6    11
 0.0098120124     1     6     6    17
 -0.0022999715     1     6     6    19
 0.0000000003     1     6     7     2
 0.0067696900     1     6     7    19
 0.0000000009     1     6     8     1
 -0.0628945111     1     6     8     2
 0.0034028978     1     6     8     4
 0.0003958514     1     6     8    10
 -0.0012212581     1     6     8    16
 -0.0013833195     1     6     8    18
 0.0000000001     1     6     8    19
 0.0000000048     1     6     9     1
 -0.3414303512     1     6     9     2
 -0.0000000001     1     6     9     3
 0.0184730368     1     6     9     4
 0.0021489264     1     6     9    10
 -0.0066297453     1     6     9    16
 -0.0075095148     1     6     9    18
 -0.0000008256     1     6    10     8
 -0.0000044822     1     6    10     9
 0.0000105272     1     6    10    14
 0.0003212281     1     6    10    15
 0.0000001279     1     6    11    12
 0.0008150381     1     6    11    13
 0.0000319750     1     6    12     1
 -0.0000000001     1     6    12     2
 -0.0000024240     1     6    12     3
 -0.0000001567     1     6    12     5
 0.0000011253     1     6    12    11
 -0.0000022149     1     6    12    17
 -0.0034027403     1     6    12    19
 0.2038655587     1     6    13     1
 -0.0000000003     1     6    13     2
 -0.0154548604     1     6    13     3
 0.0000000002     1     6    13     4
 -0.0009988571     1     6    13     5
 0.0071747907     1     6    13    11
 -0.0000000001     1     6    13    16
 -0.0141219591     1     6    13    17
 -0.0000000001     1     6    13    18
 0.0011566609     1     6    13    19
 0.0064335914     1     6    14     2
 -0.0005066307     1     6    14     4
 -0.0000392086     1     6    14    10
 0.0003624344     1     6    14    16
 0.0003626378     1     6    14    18
 -0.0000000030     1     6    15     1
 0.1963147453     1     6    15     2
 0.0000000001     1     6    15     3
 -0.0154593388     1     6    15     4
 -0.0011964125     1     6    15    10
 0.0110593295     1     6    15    16
 0.0000000001     1     6    15    17
 0.0110655390     1     6    15    18
 0.0000056169     1     6    16     8
 0.0000304919     1     6    16     9
 0.0000474846     1     6    16    14
 0.0014489466     1     6    16    15
 -0.0000003327     1     6    17    12
 -0.0021214894     1     6    17    13
 0.0000297726     1     6    18     8
 0.0001616241     1     6    18     9
 -0.0000000001     1     6    18    13
 0.0000710555     1     6    18    14
 0.0021681885     1     6    18    15
 0.0055352681     1     6    19    12
 -0.0018815507     1     6    19    13
 0.0000000001     1     6    19    14
 -0.0000208408     1     7     2     8
 0.0000038391     1     7     2     9
 0.0000254057     1     7     2    14
 -0.0000008326     1     7     2    15
 0.0074873558     1     7     3    12
 -0.0000011743     1     7     3    13
 -0.0001925664     1     7     4     8
 0.0000354724     1     7     4     9
 -0.0073219149     1     7     4    14
 0.0002399524     1     7     4    15
 -0.0000980281     1     7     5    12
 0.0000000154     1     7     5    13
 0.0000000003     1     7     6     2
 0.0067696900     1     7     6    19
 -0.5142496945     1     7     7     1
 -0.0000000008     1     7     7     2
 0.0184351122     1     7     7     3
 -0.0000000001     1     7     7     4
 0.0017095231     1     7     7     5
 -0.0037812883     1     7     7    11
 0.0098120124     1     7     7    17
 0.0022999715     1     7     7    19
 -0.0000000048     1     7     8     1
 0.3414303512     1     7     8     2
 0.0000000001     1     7     8     3
 -0.0184730368     1     7     8     4
 -0.0021489264     1     7     8    10
 0.0066297453     1     7     8    16
 0.0075095148     1     7     8    18
 0.0000000009     1     7     9     1
 -0.0628945111     1     7     9     2
 0.0034028978     1     7     9     4
 0.0003958514     1     7     9    10
 -0.0012212581     1     7     9    16
 -0.0013833195     1     7     9    18
 0.0000044822     1     7    10     8
 -0.0000008256     1     7    10     9
 -0.0003212281     1     7    10    14
 0.0000105272     1     7    10    15
 0.0008150381     1     7    11    12
 -0.0000001279     1     7    11    13
 0.2038655587     1     7    12     1
 0.0000000003     1     7    12     2
 -0.0154548604     1     7    12     3
 0.0000000001     1     7    12     4
 -0.0009988571     1     7    12     5
 0.0071747907     1     7    12    11
 -0.0141219591     1     7    12    17
 -0.0011566609     1     7    12    19
 -0.0000319750     1     7    13     1
 -0.0000000001     1     7    13     2
 0.0000024240     1     7    13     3
 0.0000001567     1     7    13     5
 -0.0000011253     1     7    13    11
 0.0000022149     1     7    13    17
 -0.0034027403     1     7    13    19
 0.0000000026     1     7    14     1
 -0.1963147453     1     7    14     2
 -0.0000000001     1     7    14     3
 0.0154593388     1     7    14     4
 0.0011964125     1     7    14    10
 -0.0110593295     1     7    14    16
 -0.0000000001     1     7    14    17
 -0.0110655390     1     7    14    18
 -0.0000000002     1     7    15     1
 0.0064335914     1     7    15     2
 -0.0005066307     1     7    15     4
 -0.0000392086     1     7    15    10
 0.0003624344     1     7    15    16
 0.0003626378     1     7    15    18
 -0.0000304919     1     7    16     8
 0.0000056169     1     7    16     9
 -0.0014489466     1     7    16    14
 0.0000474846     1     7    16    15
 -0.0021214894     1     7    17    12
 0.0000003327     1     7    17    13
 -0.0000000001     1     7    17    14
 -0.0001616241     1     7    18     8
 0.0000297726     1     7    18     9
 -0.0021681885     1     7    18    14
 0.0000710555     1     7    18    15
 0.0018815507     1     7    19    12
 0.0055352681     1     7    19    13
 -0.0000000001     1     7    19    15
 -0.0000038391     1     8     2     6
 0.0000208408     1     8     2     7
 -0.0000234741     1     8     2    12
 0.0000043279     1     8     2    13
 0.0071957335     1     8     3    14
 0.0010831620     1     8     3    15
 -0.0000354724     1     8     4     6
 0.0001925664     1     8     4     7
 -0.0073194296     1     8     4    12
 0.0013494911     1     8     4    13
 0.0004345014     1     8     5    14
 0.0000654048     1     8     5    15
 0.0000000009     1     8     6     1
 -0.0628983502     1     8     6     2
 0.0033674254     1     8     6     4
 0.0003966770     1     8     6    10
 -0.0012268750     1     8     6    16
 -0.0014130921     1     8     6    18
 0.0000000001     1     8     6    19
 -0.0000000048     1     8     7     1
 0.3414511920     1     8     7     2
 0.0000000001     1     8     7     3
 -0.0182804704     1     8     7     4
 -0.0021534086     1     8     7    10
 0.0066602372     1     8     7    16
 0.0076711389     1     8     7    18
 -0.5198378633     1     8     8     1
 0.0000000008     1     8     8     2
 0.0186729479     1     8     8     3
 -0.0000000001     1     8     8     4
 0.0017303805     1     8     8     5
 -0.0043281148     1     8     8    11
 0.0101380218     1     8     8    17
 -0.0002633363     1     8     8    19
 -0.0071481467     1     8     9    19
 0.0000008256     1     8    10     6
 -0.0000044822     1     8    10     7
 -0.0004092221     1     8    10    12
 0.0000754487     1     8    10    13
 0.0003664581     1     8    11    14
 0.0000551623     1     8    11    15
 0.0000000031     1     8    12     1
 -0.2030595472     1     8    12     2
 -0.0000000002     1     8    12     3
 0.0157245576     1     8    12     4
 0.0013081482     1     8    12    10
 -0.0107434002     1     8    12    16
 -0.0000000001     1     8    12    17
 -0.0109015062     1     8    12    18
 -0.0000000006     1     8    13     1
 0.0374383071     1     8    13     2
 -0.0028991536     1     8    13     4
 -0.0002411847     1     8    13    10
 0.0019807722     1     8    13    16
 0.0020099224     1     8    13    18
 0.2021568680     1     8    14     1
 -0.0000000003     1     8    14     2
 -0.0153901185     1     8    14     3
 0.0000000002     1     8    14     4
 -0.0008978346     1     8    14     5
 0.0066716292     1     8    14    11
 -0.0000000001     1     8    14    16
 -0.0140264430     1     8    14    17
 -0.0000000001     1     8    14    18
 -0.0003959287     1     8    14    19
 0.0304303431     1     8    15     1
 -0.0023166494     1     8    15     3
 -0.0001351496     1     8    15     5
 0.0010042694     1     8    15    11
 -0.0021113775     1     8    15    17
 0.0035018854     1     8    15    19
 -0.0000056169     1     8    16     6
 0.0000304919     1     8    16     7
 -0.0013425589     1     8    16    12
 0.0002475290     1     8    16    13
 -0.0017209147     1     8    17    14
 -0.0002590465     1     8    17    15
 -0.0000297726     1     8    18     6
 0.0001616241     1     8    18     7
 -0.0019994823     1     8    18    12
 0.0003686467     1     8    18    13
 -0.0000000001     1     8    18    14
 0.0000000001     1     8    19    13
 0.0006495281     1     8    19    14
 -0.0057449053     1     8    19    15
 -0.0000208408     1     9     2     6
 -0.0000038391     1     9     2     7
 0.0000043279     1     9     2    12
 0.0000234741     1     9     2    13
 -0.0010831620     1     9     3    14
 0.0071957335     1     9     3    15
 -0.0001925664     1     9     4     6
 -0.0000354724     1     9     4     7
 0.0013494911     1     9     4    12
 0.0073194296     1     9     4    13
 -0.0000654048     1     9     5    14
 0.0004345014     1     9     5    15
 0.0000000048     1     9     6     1
 -0.3414511920     1     9     6     2
 -0.0000000001     1     9     6     3