&FCI NORB= 19,NELEC= 14,MS2=0,
 ORBSYM=1,1,1,1,1,1,1,1,1,1,1,1,1,1,1,1,1,1,1
 ISYM=1,
&END
 0.5376585609     1     1     2     2
 0.0104588467     1     1     2     4
 -0.0022077936     1     1     2    10
 0.0201398847     1     1     2    17
 0.8605148665     1     1     3     3
 -0.1152156316     1     1     3     7
 0.0989559790     1     1     3    11
 0.1086142411     1     1     3    14
 0.0104588467     1     1     4     2
 0.6461858895     1     1     4     4
 -0.1319094303     1     1     4    10
 0.1157876977     1     1     4    17
 0.7089285062     1     1     5     5
 -0.0915336204     1     1     5    12
 -0.2032874392     1     1     5    13
 0.7089285062     1     1     6     6
 -0.2032874392     1     1     6    12
 0.0915336204     1     1     6    13
 -0.1152156316     1     1     7     3
 0.6893453912     1     1     7     7
 -0.1461271258     1     1     7    11
 0.1524293980     1     1     7    14
 0.5942742261     1     1     8     8
 -0.1513332748     1     1     8    15
 -0.2049302660     1     1     8    16
 0.5942742261     1     1     9     9
 -0.2049302660     1     1     9    15
 0.1513332748     1     1     9    16
 -0.0022077936     1     1    10     2
 -0.1319094303     1     1    10     4
 0.3789232019     1     1    10    10
 0.0125871887     1     1    10    17
 0.0989559790     1     1    11     3
 -0.1461271258     1     1    11     7
 0.4707626901     1     1    11    11
 0.0105451538     1     1    11    14
 -0.0915336204     1     1    12     5
 -0.2032874392     1     1    12     6
 0.5642595600     1     1    12    12
 -0.2032874392     1     1    13     5
 0.0915336204     1     1    13     6
 0.5642595600     1     1    13    13
 0.1086142411     1     1    14     3
 0.1524293980     1     1    14     7
 0.0105451538     1     1    14    11
 0.5667312022     1     1    14    14
 -0.1513332748     1     1    15     8
 -0.2049302660     1     1    15     9
 0.6373003459     1     1    15    15
 -0.2049302660     1     1    16     8
 0.1513332748     1     1    16     9
 0.6373003459     1     1    16    16
 0.0201398847     1     1    17     2
 0.1157876977     1     1    17     4
 0.0125871887     1     1    17    10
 0.6886242018     1     1    17    17
 0.6179647244     1     1    18    18
 0.6179647244     1     1    19    19
 -0.5376585609     1     2     2     1
 -0.0149766249     1     2     2     3
 0.0212369812     1     2     2     7
 -0.0131694945     1     2     2    11
 0.0090910587     1     2     2    14
 -0.1187041625     1     2     3     4
 0.0754432339     1     2     3    10
 0.0966159147     1     2     3    17
 -0.0104588467     1     2     4     1
 -0.1193061671     1     2     4     3
 -0.2327897571     1     2     4     7
 0.0214924789     1     2     4    11
 -0.1521125654     1     2     4    14
 0.1032311036     1     2     5     8
 0.1690179352     1     2     5     9
 -0.1822942366     1     2     5    15
 0.0160420788     1     2     5    16
 0.1690179352     1     2     6     8
 -0.1032311036     1     2     6     9
 -0.0160420788     1     2     6    15
 -0.1822942366     1     2     6    16
 -0.2336268747     1     2     7     4
 0.0306164582     1     2     7    10
 -0.1899394566     1     2     7    17
 0.1028836975     1     2     8     5
 0.1684491353     1     2     8     6
 -0.0991252104     1     2     8    12
 -0.0124782647     1     2     8    13
 0.1684491353     1     2     9     5
 -0.1028836975     1     2     9     6
 0.0124782647     1     2     9    12
 -0.0991252104     1     2     9    13
 0.0022077936     1     2    10     1
 0.0755161460     1     2    10     3
 0.0304382284     1     2    10     7
 -0.0619983986     1     2    10    11
 0.0968979619     1     2    10    14
 0.0220292019     1     2    11     4
 -0.0621120799     1     2    11    10
 0.0754475423     1     2    11    17
 -0.0997372597     1     2    12     8
 0.0125553118     1     2    12     9
 0.0987512011     1     2    12    15
 0.1761915791     1     2    12    16
 -0.0125553118     1     2    13     8
 -0.0997372597     1     2    13     9
 0.1761915791     1     2    13    15
 -0.0987512011     1     2    13    16
 -0.1524929045     1     2    14     4
 0.0969901932     1     2    14    10
 -0.1609344482     1     2    14    17
 -0.1813886023     1     2    15     5
 -0.0159623821     1     2    15     6
 0.0983337024     1     2    15    12
 0.1754466791     1     2    15    13
 0.0159623821     1     2    16     5
 -0.1813886023     1     2    16     6
 0.1754466791     1     2    16    12
 -0.0983337024     1     2    16    13
 -0.0201398847     1     2    17     1
 0.0956160023     1     2    17     3
 -0.1884498249     1     2    17     7
 0.0744960566     1     2    17    11
 -0.1603382808     1     2    17    14
 0.0149766249     1     3     2     2
 0.0005879684     1     3     2     4
 -0.0001051777     1     3     2    10
 0.0010341420     1     3     2    17
 -0.8605148665     1     3     3     1
 0.0259642935     1     3     3     7
 -0.0159657433     1     3     3    11
 0.0192709989     1     3     3    14
 0.1193061671     1     3     4     2
 -0.0110924238     1     3     4     4
 0.0022617708     1     3     4    10
 -0.0147037709     1     3     4    17
 -0.0182813370     1     3     5     5
 0.0085684436     1     3     5    12
 0.0190296957     1     3     5    13
 -0.0182813370     1     3     6     6
 0.0190296957     1     3     6    12
 -0.0085684436     1     3     6    13
 0.1152156316     1     3     7     1
 -0.0255220754     1     3     7     7
 0.0103779963     1     3     7    11
 -0.0200973186     1     3     7    14
 -0.0124394553     1     3     8     8
 0.0101970986     1     3     8    15
 0.0138085568     1     3     8    16
 -0.0124394553     1     3     9     9
 0.0138085568     1     3     9    15
 -0.0101970986     1     3     9    16
 -0.0755161460     1     3    10     2
 0.0012261262     1     3    10     4
 -0.0016125145     1     3    10    10
 0.0036974701     1     3    10    17
 -0.0989559790     1     3    11     1
 0.0108566282     1     3    11     7
 -0.0055366333     1     3    11    11
 0.0121654105     1     3    11    14
 0.0052135188     1     3    12     5
 0.0115787279     1     3    12     6
 -0.0128347647     1     3    12    12
 0.0115787279     1     3    13     5
 -0.0052135188     1     3    13     6
 -0.0128347647     1     3    13    13
 -0.1086142411     1     3    14     1
 -0.0072800030     1     3    14     7
 0.0040516696     1     3    14    11
 -0.0058315869     1     3    14    14
 0.0082956635     1     3    15     8
 0.0112336994     1     3    15     9
 -0.0201372869     1     3    15    15
 0.0112336994     1     3    16     8
 -0.0082956635     1     3    16     9
 -0.0201372869     1     3    16    16
 -0.0956160023     1     3    17     2
 -0.0163444545     1     3    17     4
 0.0063418213     1     3    17    10
 -0.0178640575     1     3    17    17
 0.0018541505     1     3    18    18
 0.0018541505     1     3    19    19
 -0.0104588467     1     4     2     1
 -0.0005879684     1     4     2     3
 0.0008350466     1     4     2     7
 -0.0005402852     1     4     2    11
 0.0003596862     1     4     2    14
 0.1187041625     1     4     3     2
 0.0011509584     1     4     3    10
 0.0019535139     1     4     3    17
 -0.6461858895     1     4     4     1
 0.0110924238     1     4     4     3
 -0.0015129049     1     4     4     7
 0.0063991884     1     4     4    11
 0.0005842573     1     4     4    14
 0.0052695543     1     4     5     8
 0.0086277212     1     4     5     9
 -0.0170982226     1     4     5    15
 0.0015046610     1     4     5    16
 0.0086277212     1     4     6     8
 -0.0052695543     1     4     6     9
 -0.0015046610     1     4     6    15
 -0.0170982226     1     4     6    16
 0.2336268747     1     4     7     2
 -0.0014862612     1     4     7    10
 -0.0206678591     1     4     7    17
 0.0072035832     1     4     8     5
 0.0117942629     1     4     8     6
 -0.0172298412     1     4     8    12
 -0.0021689590     1     4     8    13
 0.0117942629     1     4     9     5
 -0.0072035832     1     4     9     6
 0.0021689590     1     4     9    12
 -0.0172298412     1     4     9    13
 0.1319094303     1     4    10     1
 -0.0012261262     1     4    10     3
 -0.0010720450     1     4    10     7
 0.0022870973     1     4    10    11
 -0.0025577635     1     4    10    14
 -0.0220292019     1     4    11     2
 0.0035830358     1     4    11    10
 0.0049938928     1     4    11    17
 -0.0090277403     1     4    12     8
 0.0011364469     1     4    12     9
 0.0053734447     1     4    12    15
 0.0095872829     1     4    12    16
 -0.0011364469     1     4    13     8
 -0.0090277403     1     4    13     9
 0.0095872829     1     4    13    15
 -0.0053734447     1     4    13    16
 0.1524929045     1     4    14     2
 -0.0025284965     1     4    14    10
 -0.0081269057     1     4    14    17
 -0.0135772689     1     4    15     5
 -0.0011948135     1     4    15     6
 0.0068557217     1     4    15    12
 0.0122319569     1     4    15    13
 0.0011948135     1     4    16     5
 -0.0135772689     1     4    16     6
 0.0122319569     1     4    16    12
 -0.0068557217     1     4    16    13
 -0.1157876977     1     4    17     1
 0.0163444545     1     4    17     3
 -0.0103671049     1     4    17     7
 0.0106545672     1     4    17    11
 0.0005723798     1     4    17    14
 0.0003463077     1     5     2     8
 0.0005670018     1     5     2     9
 -0.0009114685     1     5     2    15
 0.0000802102     1     5     2    16
 0.0032939688     1     5     3    12
 0.0073155905     1     5     3    13
 -0.0020444301     1     5     4     8
 -0.0033472988     1     5     4     9
 -0.0032853045     1     5     4    15
 0.0002891102     1     5     4    16
 -0.7089285062     1     5     5     1
 0.0182813370     1     5     5     3
 0.0167564598     1     5     5     7
 -0.0078817686     1     5     5    11
 0.0135847194     1     5     5    14
 -0.0089261130     1     5     5    18
 0.0045810433     1     5     5    19
 0.0045810433     1     5     6    18
 0.0089261130     1     5     6    19
 0.0021659179     1     5     7    12
 0.0048102970     1     5     7    13
 -0.1028836975     1     5     8     2
 -0.0072035832     1     5     8     4
 0.0041027875     1     5     8    10
 0.0050855480     1     5     8    17
 -0.1684491353     1     5     9     2
 -0.0117942629     1     5     9     4
 0.0067174006     1     5     9    10
 0.0083264520     1     5     9    17
 0.0005765279     1     5    10     8
 0.0009439361     1     5    10     9
 -0.0000639418     1     5    10    15
 0.0000056270     1     5    10    16
 -0.0020157376     1     5    11    12
 -0.0044767608     1     5    11    13
 0.0915336204     1     5    12     1
 -0.0052135188     1     5    12     3
 -0.0027940247     1     5    12     7
 0.0001169041     1     5    12    11
 -0.0069799245     1     5    12    14
 -0.0001427451     1     5    12    18
 -0.0027915517     1     5    12    19
 0.2032874392     1     5    13     1
 -0.0115787279     1     5    13     3
 -0.0062052624     1     5    13     7
 0.0002596329     1     5    13    11
 -0.0155017466     1     5    13    14
 0.0027915517     1     5    13    18
 -0.0001427451     1     5    13    19
 -0.0020127165     1     5    14    12
 -0.0044700513     1     5    14    13
 0.1813886023     1     5    15     2
 0.0135772689     1     5    15     4
 -0.0101721948     1     5    15    10
 -0.0013661807     1     5    15    17
 -0.0159623821     1     5    16     2
 -0.0011948135     1     5    16     4
 0.0008951635     1     5    16    10
 0.0001202253     1     5    16    17
 0.0009715235     1     5    17     8
 0.0015906534     1     5    17     9
 0.0041186136     1     5    17    15
 -0.0003624422     1     5    17    16
 0.0003959978     1     5    18    12
 -0.0077442094     1     5    18    13
 0.0077442094     1     5    19    12
 0.0003959978     1     5    19    13
 0.0005670018     1     6     2     8
 -0.0003463077     1     6     2     9
 -0.0000802102     1     6     2    15
 -0.0009114685     1     6     2    16
 0.0073155905     1     6     3    12
 -0.0032939688     1     6     3    13
 -0.0033472988     1     6     4     8
 0.0020444301     1     6     4     9
 -0.0002891102     1     6     4    15
 -0.0032853045     1     6     4    16
 0.0045810433     1     6     5    18
 0.0089261130     1     6     5    19
 -0.7089285062     1     6     6     1
 0.0182813370     1     6     6     3
 0.0167564598     1     6     6     7
 -0.0078817686     1     6     6    11
 0.0135847194     1     6     6    14
 0.0089261130     1     6     6    18
 -0.0045810433     1     6     6    19
 0.0048102970     1     6     7    12
 -0.0021659179     1     6     7    13
 -0.1684491353     1     6     8     2
 -0.0117942629     1     6     8     4
 0.0067174006     1     6     8    10
 0.0083264520     1     6     8    17
 0.1028836975     1     6     9     2
 0.0072035832     1     6     9     4
 -0.0041027875     1     6     9    10
 -0.0050855480     1     6     9    17
 0.0009439361     1     6    10     8
 -0.0005765279     1     6    10     9
 -0.0000056270     1     6    10    15
 -0.0000639418     1     6    10    16
 -0.0044767608     1     6    11    12
 0.0020157376     1     6    11    13
 0.2032874392     1     6    12     1
 -0.0115787279     1     6    12     3
 -0.0062052624     1     6    12     7
 0.0002596329     1     6    12    11
 -0.0155017466     1     6    12    14
 -0.0027915517     1     6    12    18
 0.0001427451     1     6    12    19
 -0.0915336204     1     6    13     1
 0.0052135188     1     6    13     3
 0.0027940247     1     6    13     7
 -0.0001169041     1     6    13    11
 0.0069799245     1     6    13    14
 -0.0001427451     1     6    13    18
 -0.0027915517     1     6    13    19
 -0.0044700513     1     6    14    12
 0.0020127165     1     6    14    13
 0.0159623821     1     6    15     2
 0.0011948135     1     6    15     4
 -0.0008951635     1     6    15    10
 -0.0001202253     1     6    15    17
 0.1813886023     1     6    16     2
 0.0135772689     1     6    16     4
 -0.0101721948     1     6    16    10
 -0.0013661807     1     6    16    17
 0.0015906534     1     6    17     8
 -0.0009715235     1     6    17     9
 0.0003624422     1     6    17    15
 0.0041186136     1     6    17    16
 0.0077442094     1     6    18    12
 0.0003959978     1     6    18    13
 -0.0003959978     1     6    19    12
 0.0077442094     1     6    19    13
 -0.0212369812     1     7     2     2
 -0.0008350466     1     7     2     4
 0.0001832567     1     7     2    10
 -0.0015234351     1     7     2    17
 0.1152156316     1     7     3     1
 -0.0259642935     1     7     3     3
 -0.0003995231     1     7     3    11
 -0.0126042667     1     7     3    14
 0.2327897571     1     7     4     2
 0.0015129049     1     7     4     4
 -0.0003809804     1     7     4    10
 -0.0100205550     1     7     4    17
 -0.0167564598     1     7     5     5
 0.0049453110     1     7     5    12
 0.0109830640     1     7     5    13
 -0.0167564598     1     7     6     6
 0.0109830640     1     7     6    12
 -0.0049453110     1     7     6    13
 -0.6893453912     1     7     7     1
 0.0255220754     1     7     7     3
 0.0090485547     1     7     7    11
 0.0118677068     1     7     7    14
 -0.0082879805     1     7     8     8
 0.0069320420     1     7     8    15
 0.0093871306     1     7     8    16
 -0.0082879805     1     7     9     9
 0.0093871306     1     7     9    15
 -0.0069320420     1     7     9    16
 -0.0304382284     1     7    10     2
 0.0010720450     1     7    10     4
 0.0013095430     1     7    10    10
 -0.0018076358     1     7    10    17
 0.1461271258     1     7    11     1
 -0.0108566282     1     7    11     3
 -0.0031228548     1     7    11    11
 -0.0112087810     1     7    11    14
 0.0027940247     1     7    12     5
 0.0062052624     1     7    12     6
 -0.0077668162     1     7    12    12
 0.0062052624     1     7    13     5
 -0.0027940247     1     7    13     6
 -0.0077668162     1     7    13    13
 -0.1524293980     1     7    14     1
 0.0072800030     1     7    14     3
 0.0010603774     1     7    14    11
 0.0014849535     1     7    14    14
 0.0045460459     1     7    15     8
 0.0061560974     1     7    15     9
 -0.0106223903     1     7    15    15
 0.0061560974     1     7    16     8
 -0.0045460459     1     7    16     9
 -0.0106223903     1     7    16    16
 0.1884498249     1     7    17     2
 0.0103671049     1     7    17     4
 -0.0082803508     1     7    17    10
 -0.0113468415     1     7    17    17
 -0.0086034040     1     7    18    18
 -0.0086034040     1     7    19    19
 -0.0003463077     1     8     2     5
 -0.0005670018     1     8     2     6
 0.0006249018     1     8     2    12
 0.0000786650     1     8     2    13
 0.0017933051     1     8     3    15
 0.0024284315     1     8     3    16
 0.0020444301     1     8     4     5
 0.0033472988     1     8     4     6
 -0.0082214082     1     8     4    12
 -0.0010349427     1     8     4    13
 -0.1032311036     1     8     5     2
 -0.0052695543     1     8     5     4
 0.0034866803     1     8     5    10
 0.0042388266     1     8     5    17
 -0.1690179352     1     8     6     2
 -0.0086277212     1     8     6     4
 0.0057086624     1     8     6    10
 0.0069401344     1     8     6    17
 0.0023325548     1     8     7    15
 0.0031586648     1     8     7    16
 -0.5942742261     1     8     8     1
 0.0124394553     1     8     8     3
 0.0082879805     1     8     8     7
 -0.0007947519     1     8     8    11
 0.0087685322     1     8     8    14
 0.0037988869     1     8     8    18
 0.0027260548     1     8     8    19
 -0.0027260548     1     8     9    18
 0.0037988869     1     8     9    19
 -0.0005765279     1     8    10     5
 -0.0009439361     1     8    10     6
 0.0024147334     1     8    10    12
 0.0003039760     1     8    10    13
 -0.0001781235     1     8    11    15
 -0.0002412086     1     8    11    16
 0.0997372597     1     8    12     2
 0.0090277403     1     8    12     4
 -0.0060782494     1     8    12    10
 0.0008402728     1     8    12    17
 0.0125553118     1     8    13     2
 0.0011364469     1     8    13     4
 -0.0007651535     1     8    13    10
 0.0001057768     1     8    13    17
 -0.0006065347     1     8    14    15
 -0.0008213482     1     8    14    16
 0.1513332748     1     8    15     1
 -0.0082956635     1     8    15     3
 -0.0045460459     1     8    15     7
 0.0006274460     1     8    15    11
 -0.0081397604     1     8    15    14
 -0.0000474795     1     8    15    18
 -0.0034807012     1     8    15    19
 0.2049302660     1     8    16     1
 -0.0112336994     1     8    16     3
 -0.0061560974     1     8    16     7
 0.0008496655     1     8    16    11
 -0.0110225810     1     8    16    14
 -0.0034807012     1     8    16    18
 0.0000474795     1     8    16    19
 -0.0009715235     1     8    17     5
 -0.0015906534     1     8    17     6
 0.0039206813     1     8    17    12
 0.0004935505     1     8    17    13
 0.0000505508     1     8    18    15
 0.0037058533     1     8    18    16
 0.0037058533     1     8    19    15
 -0.0000505508     1     8    19    16
 -0.0005670018     1     9     2     5
 0.0003463077     1     9     2     6
 -0.0000786650     1     9     2    12
 0.0006249018     1     9     2    13
 0.0024284315     1     9     3    15
 -0.0017933051     1     9     3    16
 0.0033472988     1     9     4     5
 -0.0020444301     1     9     4     6
 0.0010349427     1     9     4    12
 -0.0082214082     1     9     4    13
 -0.1690179352     1     9     5     2
 -0.0086277212     1     9     5     4
 0.0057086624     1     9     5    10
 0.0069401344     1     9     5    17
 0.1032311036     1     9     6     2
 0.0052695543     1     9     6     4
 -0.0034866803     1     9     6    10
 -0.0042388266     1     9     6    17
 0.0031586648     1     9     7    15
 -0.0023325548     1     9     7    16
 -0.0027260548     1     9     8    18
 0.0037988869     1     9     8    19
 -0.5942742261     1     9     9     1
 0.0124394553     1     9     9     3
 0.0082879805     1     9     9     7
 -0.0007947519     1     9     9    11
 0.0087685322     1     9     9    14
 -0.0037988869     1     9     9    18
 -0.0027260548     1     9     9    19
 -0.0009439361     1     9    10     5
 0.0005765279     1     9    10     6
 -0.0003039760     1     9    10    12
 0.0024147334     1     9    10    13
 -0.0002412086     1     9    11    15
 0.0001781235     1     9    11    16
 -0.0125553118     1     9    12     2
 -0.0011364469     1     9    12     4
 0.0007651535     1     9    12    10
 -0.0001057768     1     9    12    17
 0.0997372597     1     9    13     2
 0.0090277403     1     9    13     4
 -0.0060782494     1     9    13    10
 0.0008402728     1     9    13    17
 -0.0008213482     1     9    14    15
 0.0006065347     1     9    14    16
 0.2049302660     1     9    15     1
 -0.0112336994     1     9    15     3
 -0.0061560974     1     9    15     7
 0.0008496655     1     9    15    11
 -0.0110225810     1     9    15    14
 0.0034807012     1     9    15    18
 -0.0000474795     1     9    15    19
 -0.1513332748     1     9    16     1
 0.0082956635     1     9    16     3
 0.0045460459     1     9    16     7
 -0.0006274460     1     9    16    11
 0.0081397604     1     9    16    14
 -0.0000474795     1     9    16    18
 -0.0034807012     1     9    16    19
 -0.0015906534     1     9    17     5
 0.0009715235     1     9    17     6
 -0.0004935505     1     9    17    12
 0.0039206813     1     9    17    13
 -0.0037058533     1     9    18    15
 0.0000505508     1     9    18    16
 0.0000505508     1     9    19    15
 0.0037058533     1     9    19    16
 0.0022077936     1    10     2     1
 0.0001051777     1    10     2     3
 -0.0001832567     1    10     2     7
 0.0001222588     1    10     2    11
 -0.0001080468     1    10     2    14
 -0.0754432339     1    10     3     2
 -0.0011509584     1    10     3     4
 -0.0027908682     1    10     3    17
 0.1319094303     1    10     4     1
 -0.0022617708     1    10     4     3
 0.0003809804     1    10     4     7
 -0.0013052877     1    10     4    11
 -0.0000886846     1    10     4    14
 -0.0034866803     1    10     5     8
 -0.0057086624     1    10     5     9
 0.0100578891     1    10     5    15
 -0.0008851045     1    10     5    16
 -0.0057086624     1    10     6     8
 0.0034866803     1    10     6     9
 0.0008851045     1    10     6    15
 0.0100578891     1    10     6    16
 -0.0306164582     1    10     7     2
 0.0014862612     1    10     7     4
 0.0067154403     1    10     7    17
 -0.0041027875     1    10     8     5
 -0.0067174006     1    10     8     6
 0.0084936023     1    10     8    12
 0.0010692075     1    10     8    13
 -0.0067174006     1    10     9     5
 0.0041027875     1    10     9     6
 -0.0010692075     1    10     9    12
 0.0084936023     1    10     9    13
 -0.3789232019     1    10    10     1
 0.0016125145     1    10    10     3
 -0.0013095430     1    10    10     7
 0.0005831451     1    10    10    11
 -0.0003325107     1    10    10    14
 0.0621120799     1    10    11     2
 -0.0035830358     1    10    11     4
 -0.0087763850     1    10    11    17
 0.0060782494     1    10    12     8
 -0.0007651535     1    10    12     9
 -0.0041636887     1    10    12    15
 -0.0074288400     1    10    12    16
 0.0007651535     1    10    13     8
 0.0060782494     1    10    13     9
 -0.0074288400     1    10    13    15
 0.0041636887     1    10    13    16
 -0.0969901932     1    10    14     2
 0.0025284965     1    10    14     4
 0.0073422748     1    10    14    17
 0.0101721948     1    10    15     5
 0.0008951635     1    10    15     6
 -0.0050813796     1    10    15    12
 -0.0090661813     1    10    15    13
 -0.0008951635     1    10    16     5
 0.0101721948     1    10    16     6
 -0.0090661813     1    10    16    12
 0.0050813796     1    10    16    13
 -0.0125871887     1    10    17     1
 -0.0063418213     1    10    17     3
 0.0082803508     1    10    17     7
 -0.0057791949     1    10    17    11
 0.0034103406     1    10    17    14
 0.0131694945     1    11     2     2
 0.0005402852     1    11     2     4
 -0.0001222588     1    11     2    10
 0.0009646541     1    11     2    17
 -0.0989559790     1    11     3     1
 0.0159657433     1    11     3     3
 0.0003995231     1    11     3     7
 0.0081804667     1    11     3    14
 -0.0214924789     1    11     4     2
 -0.0063991884     1    11     4     4
 0.0013052877     1    11     4    10
 -0.0056356606     1    11     4    17
 0.0078817686     1    11     5     5
 -0.0021211166     1    11     5    12
 -0.0047107975     1    11     5    13
 0.0078817686     1    11     6     6
 -0.0047107975     1    11     6    12
 0.0021211166     1    11     6    13
 0.1461271258     1    11     7     1
 -0.0103779963     1    11     7     3
 -0.0090485547     1    11     7     7
 -0.0123187510     1    11     7    14
 0.0007947519     1    11     8     8
 -0.0008025367     1    11     8    15
 -0.0010867674     1    11     8    16
 0.0007947519     1    11     9     9
 -0.0010867674     1    11     9    15
 0.0008025367     1    11     9    16
 0.0619983986     1    11    10     2
 -0.0022870973     1    11    10     4
 -0.0005831451     1    11    10    10
 -0.0029789638     1    11    10    17
 -0.4707626901     1    11    11     1
 0.0055366333     1    11    11     3
 0.0031228548     1    11    11     7
 0.0084103019     1    11    11    14
 -0.0001169041     1    11    12     5
 -0.0002596329     1    11    12     6
 0.0007003278     1    11    12    12
 -0.0002596329     1    11    13     5
 0.0001169041     1    11    13     6
 0.0007003278     1    11    13    13
 -0.0105451538     1    11    14     1
 -0.0040516696     1    11    14     3
 -0.0010603774     1    11    14     7
 -0.0020360515     1    11    14    14
 -0.0006274460     1    11    15     8
 -0.0008496655     1    11    15     9
 0.0013022752     1    11    15    15
 -0.0008496655     1    11    16     8
 0.0006274460     1    11    16     9
 0.0013022752     1    11    16    16
 -0.0744960566     1    11    17     2
 -0.0106545672     1    11    17     4
 0.0057791949     1    11    17    10
 -0.0022590750     1    11    17    17
 0.0046964784     1    11    18    18
 0.0046964784     1    11    19    19
 -0.0006249018     1    12     2     8
 0.0000786650     1    12     2     9
 0.0004254600     1    12     2    15
 0.0007591044     1    12     2    16
 -0.0032939688     1    12     3     5
 -0.0073155905     1    12     3     6
 0.0082214082     1    12     4     8
 -0.0010349427     1    12     4     9
 -0.0015256638     1    12     4    15
 -0.0027220846     1    12     4    16
 0.0915336204     1    12     5     1
 -0.0085684436     1    12     5     3
 -0.0049453110     1    12     5     7
 0.0021211166     1    12     5    11
 -0.0049585131     1    12     5    14
 -0.0005377544     1    12     5    18
 -0.0105164264     1    12     5    19
 0.2032874392     1    12     6     1
 -0.0190296957     1    12     6     3
 -0.0109830640     1    12     6     7
 0.0047107975     1    12     6    11
 -0.0110123846     1    12     6    14
 -0.0105164264     1    12     6    18
 0.0005377544     1    12     6    19
 -0.0021659179     1    12     7     5
 -0.0048102970     1    12     7     6
 0.0991252104     1    12     8     2
 0.0172298412     1    12     8     4
 -0.0084936023     1    12     8    10
 -0.0030871008     1    12     8    17
 -0.0124782647     1    12     9     2
 -0.0021689590     1    12     9     4
 0.0010692075     1    12     9    10
 0.0003886162     1    12     9    17
 -0.0024147334     1    12    10     8
 0.0003039760     1    12    10     9
 0.0009265057     1    12    10    15
 0.0016530686     1    12    10    16
 0.0020157376     1    12    11     5
 0.0044767608     1    12    11     6
 -0.5642595600     1    12    12     1
 0.0128347647     1    12    12     3
 0.0077668162     1    12    12     7
 -0.0007003278     1    12    12    11
 0.0174318375     1    12    12    14
 0.0024361240     1    12    12    18
 0.0009504522     1    12    12    19
 -0.0009504522     1    12    13    18
 0.0024361240     1    12    13    19
 0.0020127165     1    12    14     5
 0.0044700513     1    12    14     6
 -0.0983337024     1    12    15     2
 -0.0068557217     1    12    15     4
 0.0050813796     1    12    15    10
 0.0012379983     1    12    15    17
 -0.1754466791     1    12    16     2
 -0.0122319569     1    12    16     4
 0.0090661813     1    12    16    10
 0.0022088327     1    12    16    17
 -0.0039206813     1    12    17     8
 0.0004935505     1    12    17     9
 -0.0004133920     1    12    17    15
 -0.0007375728     1    12    17    16
 -0.0003959978     1    12    18     5
 -0.0077442094     1    12    18     6
 -0.0077442094     1    12    19     5
 0.0003959978     1    12    19     6
 -0.0000786650     1    13     2     8
 -0.0006249018     1    13     2     9
 0.0007591044     1    13     2    15
 -0.0004254600     1    13     2    16
 -0.0073155905     1    13     3     5
 0.0032939688     1    13     3     6
 0.0010349427     1    13     4     8
 0.0082214082     1    13     4     9
 -0.0027220846     1    13     4    15
 0.0015256638     1    13     4    16
 0.2032874392     1    13     5     1
 -0.0190296957     1    13     5     3
 -0.0109830640     1    13     5     7
 0.0047107975     1    13     5    11
 -0.0110123846     1    13     5    14
 0.0105164264     1    13     5    18
 -0.0005377544     1    13     5    19