&FCI NORB= 10,NELEC=  8,MS2=0,
 ORBSYM=1,1,1,1,1,1,1,1,1,1
 ISYM=1,
&END
 0.2580604911     1     1     2     2
 -0.0000044901     1     1     2     7
 0.0000000261     1     1     2    10
 0.2654505552     1     1     3     3
 -0.0000000076     1     1     3     4
 -0.0000000076     1     1     4     3
 0.2689223893     1     1     4     4
 0.2616761304     1     1     5     5
 -0.0000000083     1     1     5     6
 -0.0000000083     1     1     6     5
 0.2578724588     1     1     6     6
 -0.0000044901     1     1     7     2
 0.1893957279     1     1     7     7
 0.0000000382     1     1     7    10
 0.1751888806     1     1     8     8
 -0.0000000155     1     1     8     9
 -0.0000000155     1     1     9     8
 0.1849175654     1     1     9     9
 0.0000000261     1     1    10     2
 0.0000000382     1     1    10     7
 0.1787083891     1     1    10    10
 -0.2580604911     1     2     2     1
 0.0000000001     1     2     2     7
 0.0203084037     1     2     2    10
 0.0000000073     1     2     3     3
 -0.0020869659     1     2     3     4
 -0.0013732730     1     2     4     3
 -0.0000000079     1     2     4     4
 -0.0000000085     1     2     5     5
 -0.0010224478     1     2     5     6
 -0.0027752954     1     2     6     5
 0.0000000080     1     2     6     6
 0.0000044901     1     2     7     1
 -0.0000000002     1     2     7     7
 0.0071844622     1     2     7    10
 0.0000000154     1     2     8     8
 -0.0051745539     1     2     8     9
 -0.0045573073     1     2     9     8
 -0.0000000156     1     2     9     9
 -0.0000000261     1     2    10     1
 0.0071828529     1     2    10     7
 -0.0000000050     1     2    10    10
 -0.0000664273     1     3     2     4
 -0.2654505552     1     3     3     1
 -0.0000000073     1     3     3     2
 0.0000000023     1     3     3     7
 0.0191266553     1     3     3    10
 0.0000000076     1     3     4     1
 0.0013732730     1     3     4     2
 0.0009667560     1     3     4     7
 -0.0000000023     1     3     4    10
 0.0013653136     1     3     5     8
 -0.0000000059     1     3     5     9
 -0.0000000092     1     3     6     8
 0.0007667451     1     3     6     9
 -0.0000004060     1     3     7     4
 0.0001045958     1     3     8     5
 -0.0000000004     1     3     8     6
 0.0002177011     1     3     9     6
 0.0000000013     1     3    10     4
 0.0000664273     1     4     2     3
 0.0000000076     1     4     3     1
 0.0020869659     1     4     3     2
 0.0009671621     1     4     3     7
 -0.0000000037     1     4     3    10
 -0.2689223893     1     4     4     1
 0.0000000079     1     4     4     2
 -0.0000000019     1     4     4     7
 0.0210479482     1     4     4    10
 0.0000000009     1     4     5     8
 0.0044613094     1     4     5     9
 0.0023292430     1     4     6     8
 -0.0000000041     1     4     6     9
 0.0000004060     1     4     7     3
 -0.0000000003     1     4     8     5
 -0.0000729812     1     4     8     6
 0.0002493170     1     4     9     5
 -0.0000000002     1     4     9     6
 -0.0000000013     1     4    10     3
 0.0007925431     1     5     2     6
 0.0007239929     1     5     3     8
 -0.0000000049     1     5     3     9
 0.0000000013     1     5     4     8
 0.0029359643     1     5     4     9
 -0.2616761304     1     5     5     1
 0.0000000085     1     5     5     2
 -0.0000000005     1     5     5     7
 0.0180710277     1     5     5    10
 0.0000000083     1     5     6     1
 0.0027752954     1     5     6     2
 0.0002842987     1     5     6     7
 0.0000000003     1     5     6    10
 0.0000000015     1     5     7     6
 -0.0001045958     1     5     8     3
 0.0000000003     1     5     8     4
 -0.0002493170     1     5     9     4
 0.0000000021     1     5    10     6
 -0.0007925431     1     6     2     5
 -0.0000000062     1     6     3     8
 0.0001525378     1     6     3     9
 0.0020594283     1     6     4     8
 -0.0000000026     1     6     4     9
 0.0000000083     1     6     5     1
 0.0010224478     1     6     5     2
 0.0002842973     1     6     5     7
 -0.0000000017     1     6     5    10
 -0.2578724588     1     6     6     1
 -0.0000000080     1     6     6     2
 0.0000000008     1     6     6     7
 0.0176154992     1     6     6    10
 -0.0000000015     1     6     7     5
 0.0000000004     1     6     8     3
 0.0000729812     1     6     8     4
 -0.0002177011     1     6     9     3
 0.0000000002     1     6     9     4
 -0.0000000021     1     6    10     5
 0.0000044901     1     7     2     1
 -0.0000000001     1     7     2     2
 -0.0000115025     1     7     2    10
 -0.0000000023     1     7     3     3
 -0.0009671621     1     7     3     4
 -0.0009667560     1     7     4     3
 0.0000000019     1     7     4     4
 0.0000000005     1     7     5     5
 -0.0002842973     1     7     5     6
 -0.0002842987     1     7     6     5
 -0.0000000008     1     7     6     6
 -0.1893957279     1     7     7     1
 0.0000000002     1     7     7     2
 0.0118046237     1     7     7    10
 -0.0000000033     1     7     8     8
 -0.0009912528     1     7     8     9
 -0.0009912510     1     7     9     8
 0.0000000033     1     7     9     9
 -0.0000000382     1     7    10     1
 -0.0071828529     1     7    10     2
 0.0000000050     1     7    10    10
 -0.0006801904     1     8     2     9
 -0.0007239929     1     8     3     5
 0.0000000062     1     8     3     6
 -0.0000000013     1     8     4     5
 -0.0020594283     1     8     4     6
 -0.0013653136     1     8     5     3
 -0.0000000009     1     8     5     4
 0.0000000092     1     8     6     3
 -0.0023292430     1     8     6     4
 -0.0000000018     1     8     7     9
 -0.1751888806     1     8     8     1
 -0.0000000154     1     8     8     2
 0.0000000033     1     8     8     7
 0.0089813120     1     8     8    10
 0.0000000155     1     8     9     1
 0.0045573073     1     8     9     2
 0.0009912510     1     8     9     7
 0.0000000026     1     8     9    10
 0.0000000039     1     8    10     9
 0.0006801904     1     9     2     8
 0.0000000049     1     9     3     5
 -0.0001525378     1     9     3     6
 -0.0029359643     1     9     4     5
 0.0000000026     1     9     4     6
 0.0000000059     1     9     5     3
 -0.0044613094     1     9     5     4
 -0.0007667451     1     9     6     3
 0.0000000041     1     9     6     4
 0.0000000018     1     9     7     8
 0.0000000155     1     9     8     1
 0.0051745539     1     9     8     2
 0.0009912528     1     9     8     7
 -0.0000000013     1     9     8    10
 -0.1849175654     1     9     9     1
 0.0000000156     1     9     9     2
 -0.0000000033     1     9     9     7
 0.0082674718     1     9     9    10
 -0.0000000039     1     9    10     8
 -0.0000000261     1    10     2     1
 -0.0203084037     1    10     2     2
 0.0000115025     1    10     2     7
 -0.0191266553     1    10     3     3
 0.0000000037     1    10     3     4
 0.0000000023     1    10     4     3
 -0.0210479482     1    10     4     4
 -0.0180710277     1    10     5     5
 0.0000000017     1    10     5     6
 -0.0000000003     1    10     6     5
 -0.0176154992     1    10     6     6
 -0.0000000382     1    10     7     1
 -0.0071844622     1    10     7     2
 -0.0118046237     1    10     7     7
 -0.0089813120     1    10     8     8
 0.0000000013     1    10     8     9
 -0.0000000026     1    10     9     8
 -0.0082674718     1    10     9     9
 -0.1787083891     1    10    10     1
 0.0000000050     1    10    10     2
 -0.0000000050     1    10    10     7
 -0.2580604911     2     1     1     2
 0.0000044901     2     1     1     7
 -0.0000000261     2     1     1    10
 0.0000000073     2     1     3     3
 -0.0013732730     2     1     3     4
 -0.0020869659     2     1     4     3
 -0.0000000079     2     1     4     4
 -0.0000000085     2     1     5     5
 -0.0027752954     2     1     5     6
 -0.0010224478     2     1     6     5
 0.0000000080     2     1     6     6
 0.0000000001     2     1     7     2
 -0.0000000002     2     1     7     7
 0.0071828529     2     1     7    10
 0.0000000154     2     1     8     8
 -0.0045573073     2     1     8     9
 -0.0051745539     2     1     9     8
 -0.0000000156     2     1     9     9
 0.0203084037     2     1    10     2
 0.0071844622     2     1    10     7
 -0.0000000050     2     1    10    10
 0.2580604911     2     2     1     1
 -0.0000000001     2     2     1     7
 -0.0203084037     2     2     1    10
 0.2686849557     2     2     3     3
 0.0000000076     2     2     3     4
 0.0000000076     2     2     4     3
 0.2652362985     2     2     4     4
 0.2576720004     2     2     5     5
 0.0000000083     2     2     5     6
 0.0000000083     2     2     6     5
 0.2614638295     2     2     6     6
 -0.0000000001     2     2     7     1
 0.1892672546     2     2     7     7
 -0.0000000382     2     2     7    10
 0.1848325556     2     2     8     8
 0.0000000155     2     2     8     9
 0.0000000155     2     2     9     8
 0.1750974887     2     2     9     9
 -0.0203084037     2     2    10     1
 -0.0000000382     2     2    10     7
 0.1747668639     2     2    10    10
 0.0000664273     2     3     1     4
 -0.0000000073     2     3     3     1
 -0.2686849557     2     3     3     2
 0.0010475476     2     3     3     7
 -0.0000000229     2     3     3    10
 0.0020869659     2     3     4     1
 -0.0000000076     2     3     4     2
 -0.0000000022     2     3     4     7
 -0.0003709352     2     3     4    10
 -0.0000000041     2     3     5     8
 -0.0022442367     2     3     5     9
 -0.0043419814     2     3     6     8
 0.0000000008     2     3     6     9
 -0.0000000002     2     3     8     5
 -0.0002494236     2     3     8     6
 0.0000731322     2     3     9     5
 -0.0000000003     2     3     9     6
 0.0009604948     2     3    10     4
 -0.0000664273     2     4     1     3
 0.0013732730     2     4     3     1
 -0.0000000076     2     4     3     2
 -0.0000000022     2     4     3     7
 -0.0014898575     2     4     3    10
 0.0000000079     2     4     4     1
 -0.2652362985     2     4     4     2
 -0.0009682749     2     4     4     7
 -0.0000000288     2     4     4    10
 -0.0008216656     2     4     5     8
 -0.0000000092     2     4     5     9
 -0.0000000059     2     4     6     8
 -0.0012760882     2     4     6     9
 -0.0002176956     2     4     8     5
 -0.0000000004     2     4     9     5
 -0.0001048571     2     4     9     6
 -0.0009604948     2     4    10     3
 -0.0007925431     2     5     1     6
 -0.0000000026     2     5     3     8
 -0.0019745725     2     5     3     9
 -0.0002074636     2     5     4     8
 -0.0000000062     2     5     4     9
 0.0000000085     2     5     5     1
 -0.2576720004     2     5     5     2
 -0.0002763789     2     5     5     7
 -0.0000000236     2     5     5    10
 0.0010224478     2     5     6     1
 -0.0000000083     2     5     6     2
 -0.0000000007     2     5     6     7
 0.0005716979     2     5     6    10
 0.0000000002     2     5     8     3
 0.0002176956     2     5     8     4
 -0.0000731322     2     5     9     3
 0.0000000004     2     5     9     4
 0.0016848573     2     5    10     6
 0.0007925431     2     6     1     5
 -0.0028165293     2     6     3     8
 0.0000000012     2     6     3     9
 -0.0000000049     2     6     4     8
 -0.0006345062     2     6     4     9
 0.0027752954     2     6     5     1
 -0.0000000083     2     6     5     2
 -0.0000000007     2     6     5     7
 -0.0009896652     2     6     5    10
 -0.0000000080     2     6     6     1
 -0.2614638295     2     6     6     2
 0.0003508600     2     6     6     7
 -0.0000000223     2     6     6    10
 0.0002494236     2     6     8     3
 0.0000000003     2     6     9     3
 0.0001048571     2     6     9     4
 -0.0016848573     2     6    10     5
 -0.0000044901     2     7     1     1
 0.0000000001     2     7     1     2
 0.0000115025     2     7     1    10
 -0.0010475476     2     7     3     3
 0.0000000022     2     7     3     4
 0.0000000022     2     7     4     3
 0.0009682749     2     7     4     4
 0.0002763789     2     7     5     5
 0.0000000007     2     7     5     6
 0.0000000007     2     7     6     5
 -0.0003508600     2     7     6     6
 0.0000000002     2     7     7     1
 -0.1892672546     2     7     7     2
 -0.0000000152     2     7     7    10
 -0.0009150648     2     7     8     8
 0.0000000032     2     7     8     9
 0.0000000032     2     7     9     8
 0.0009029365     2     7     9     9
 -0.0071844622     2     7    10     1
 0.0000000382     2     7    10     2
 0.0012668359     2     7    10    10
 0.0006801904     2     8     1     9
 0.0000000026     2     8     3     5
 0.0028165293     2     8     3     6
 0.0002074636     2     8     4     5
 0.0000000049     2     8     4     6
 0.0000000041     2     8     5     3
 0.0008216656     2     8     5     4
 0.0043419814     2     8     6     3
 0.0000000059     2     8     6     4
 -0.0000000154     2     8     8     1
 -0.1848325556     2     8     8     2
 0.0009150648     2     8     8     7
 -0.0000000118     2     8     8    10
 0.0051745539     2     8     9     1
 -0.0000000155     2     8     9     2
 -0.0000000032     2     8     9     7
 0.0018743841     2     8     9    10
 0.0030284706     2     8    10     9
 -0.0006801904     2     9     1     8
 0.0019745725     2     9     3     5
 -0.0000000012     2     9     3     6
 0.0000000062     2     9     4     5
 0.0006345062     2     9     4     6
 0.0022442367     2     9     5     3
 0.0000000092     2     9     5     4
 -0.0000000008     2     9     6     3
 0.0012760882     2     9     6     4
 0.0045573073     2     9     8     1
 -0.0000000155     2     9     8     2
 -0.0000000032     2     9     8     7
 -0.0011608828     2     9     8    10
 0.0000000156     2     9     9     1
 -0.1750974887     2     9     9     2
 -0.0009029365     2     9     9     7
 -0.0000000104     2     9     9    10
 -0.0030284706     2     9    10     8
 0.0000000261     2    10     1     1
 0.0203084037     2    10     1     2
 -0.0000115025     2    10     1     7
 0.0000000229     2    10     3     3
 0.0014898575     2    10     3     4
 0.0003709352     2    10     4     3
 0.0000000288     2    10     4     4
 0.0000000236     2    10     5     5
 0.0009896652     2    10     5     6
 -0.0005716979     2    10     6     5
 0.0000000223     2    10     6     6
 -0.0071828529     2    10     7     1
 0.0000000382     2    10     7     2
 0.0000000152     2    10     7     7
 0.0000000118     2    10     8     8
 0.0011608828     2    10     8     9
 -0.0018743841     2    10     9     8
 0.0000000104     2    10     9     9
 0.0000000050     2    10    10     1
 -0.1747668639     2    10    10     2
 -0.0012668359     2    10    10     7
 -0.2654505552     3     1     1     3
 0.0000000076     3     1     1     4
 -0.0000000073     3     1     2     3
 0.0013732730     3     1     2     4
 -0.0000664273     3     1     4     2
 -0.0000004060     3     1     4     7
 0.0000000013     3     1     4    10
 0.0001045958     3     1     5     8
 -0.0000000004     3     1     6     8
 0.0002177011     3     1     6     9
 0.0000000023     3     1     7     3
 0.0009667560     3     1     7     4
 0.0013653136     3     1     8     5
 -0.0000000092     3     1     8     6
 -0.0000000059     3     1     9     5
 0.0007667451     3     1     9     6
 0.0191266553     3     1    10     3
 -0.0000000023     3     1    10     4
 -0.0000000073     3     2     1     3
 0.0020869659     3     2     1     4
 -0.2686849557     3     2     2     3
 -0.0000000076     3     2     2     4
 0.0000664273     3     2     4     1
 0.0009604948     3     2     4    10
 -0.0000000002     3     2     5     8
 0.0000731322     3     2     5     9
 -0.0002494236     3     2     6     8
 -0.0000000003     3     2     6     9
 0.0010475476     3     2     7     3
 -0.0000000022     3     2     7     4
 -0.0000000041     3     2     8     5
 -0.0043419814     3     2     8     6
 -0.0022442367     3     2     9     5
 0.0000000008     3     2     9     6
 -0.0000000229     3     2    10     3
 -0.0003709352     3     2    10     4
 0.2654505552     3     3     1     1
 0.0000000073     3     3     1     2
 -0.0000000023     3     3     1     7
 -0.0191266553     3     3     1    10
 0.0000000073     3     3     2     1
 0.2686849557     3     3     2     2
 -0.0010475476     3     3     2     7
 0.0000000229     3     3     2    10
 0.2505467336     3     3     4     4
 0.2299582166     3     3     5     5
 -0.0000000004     3     3     5     6
 -0.0000000004     3     3     6     5
 0.2390058168     3     3     6     6
 -0.0000000023     3     3     7     1
 -0.0010475476     3     3     7     2
 0.1877385067     3     3     7     7
 -0.0000000078     3     3     7    10
 0.1844929676     3     3     8     8
 -0.0000000095     3     3     8     9
 -0.0000000095     3     3     9     8
 0.1693096829     3     3     9     9
 -0.0191266553     3     3    10     1
 0.0000000229     3     3    10     2
 -0.0000000078     3     3    10     7
 0.1679278409     3     3    10    10
 -0.0000000076     3     4     1     1
 -0.0020869659     3     4     1     2
 -0.0009671621     3     4     1     7
 0.0000000037     3     4     1    10
 -0.0013732730     3     4     2     1
 0.0000000076     3     4     2     2
 0.0000000022     3     4     2     7
 0.0014898575     3     4     2    10
 -0.2505467336     3     4     4     3
 -0.0000000004     3     4     5     5
 0.0279290357     3     4     5     6
 -0.0188814269     3     4     6     5
 0.0000000004     3     4     6     6
 -0.0009667560     3     4     7     1
 0.0000000022     3     4     7     2
 -0.0088913869     3     4     7    10
 0.0000000095     3     4     8     8
 0.0077541715     3     4     8     9
 0.0074290987     3     4     9     8
 -0.0000000095     3     4     9     9
 0.0000000023     3     4    10     1
 0.0003709352     3     4    10     2
 -0.0088902034     3     4    10     7
 -0.0000000092     3     4    10    10
 -0.0007239929     3     5     1     8
 0.0000000049     3     5     1     9
 0.0000000026     3     5     2     8
 0.0019745725     3     5     2     9
 0.0455877493     3     5     4     6
 -0.2299582166     3     5     5     3
 0.0000000004     3     5     5     4
 0.0000000004     3     5     6     3
 0.0188814269     3     5     6     4
 -0.0000000155     3     5     7     8
 -0.0251560382     3     5     7     9
 -0.0013653136     3     5     8     1
 0.0000000041     3     5     8     2
 -0.0000000154     3     5     8     7
 0.0164021662     3     5     8    10
 0.0000000059     3     5     9     1
 0.0022442367     3     5     9     2
 -0.0249347931     3     5     9     7
 -0.0000000243     3     5     9    10
 0.0164519602     3     5    10     8
 -0.0000000243     3     5    10     9
 0.0000000062     3     6     1     8
 -0.0001525378     3     6     1     9
 0.0028165293     3     6     2     8
 -0.0000000012     3     6     2     9
 -0.0455877493     3     6     4     5
 0.0000000004     3     6     5     3
 -0.0279290357     3     6     5     4
 -0.2390058168     3     6     6     3
 -0.0000000004     3     6     6     4
 0.0251560617     3     6     7     8
 -0.0000000155     3     6     7     9
 0.0000000092     3     6     8     1
 0.0043419814     3     6     8     2
 0.0249377339     3     6     8     7
 -0.0000000258     3     6     8    10
 -0.0007667451     3     6     9     1
 -0.0000000008     3     6     9     2
 -0.0000000154     3     6     9     7
 -0.0103474658     3     6     9    10
 -0.0000000259     3     6    10     8
 -0.0103743540     3     6    10     9
 0.0000000023     3     7     1     3
 0.0009671621     3     7     1     4
 0.0010475476     3     7     2     3
 -0.0000000022     3     7     2     4
 0.0000004060     3     7     4     1
 -0.0000036481     3     7     4    10
 -0.0000000001     3     7     5     8
 -0.0001074558     3     7     5     9
 0.0001045386     3     7     6     8
 -0.1877385067     3     7     7     3
 0.0000000154     3     7     8     5
 -0.0249377339     3     7     8     6
 0.0249347931     3     7     9     5
 0.0000000154     3     7     9     6
 0.0000000078     3     7    10     3
 0.0088902034     3     7    10     4
 0.0007239929     3     8     1     5
 -0.0000000062     3     8     1     6
 -0.0000000026     3     8     2     5
 -0.0028165293     3     8     2     6
 0.0002836080     3     8     4     9
 -0.0001045958     3     8     5     1
 0.0000000002     3     8     5     2
 0.0000000001     3     8     5     7
 -0.0000330427     3     8     5    10
 0.0000000004     3     8     6     1
 0.0002494236     3     8     6     2
 -0.0001045386     3     8     6     7
 0.0000000155     3     8     7     5
 -0.0251560617     3     8     7     6
 -0.1844929676     3     8     8     3
 -0.0000000095     3     8     8     4
 0.0000000095     3     8     9     3
 -0.0074290987     3     8     9     4
 -0.0164519602     3     8    10     5
 0.0000000259     3     8    10     6
 -0.0000000049     3     9     1     5
 0.0001525378     3     9     1     6
 -0.0019745725     3     9     2     5
 0.0000000012     3     9     2     6
 -0.0002836080     3     9     4     8
 -0.0000731322     3     9     5     2
 0.0001074558     3     9     5     7
 -0.0002177011     3     9     6     1
 0.0000000003     3     9     6     2
 0.0000044425     3     9     6    10
 0.0251560382     3     9     7     5
 0.0000000155     3     9     7     6
 0.0000000095     3     9     8     3
 -0.0077541715     3     9     8     4
 -0.1693096829     3     9     9     3
 0.0000000095     3     9     9     4
 0.0000000243     3     9    10     5
 0.0103743540     3     9    10     6
 0.0191266553     3    10     1     3
 -0.0000000037     3    10     1     4
 -0.0000000229     3    10     2     3
 -0.0014898575     3    10     2     4
 -0.0000000013     3    10     4     1
 -0.0009604948     3    10     4     2
 0.0000036481     3    10     4     7
 0.0000330427     3    10     5     8
 -0.0000044425     3    10     6     9
 0.0000000078     3    10     7     3
 0.0088913869     3    10     7     4
 -0.0164021662     3    10     8     5
 0.0000000258     3    10     8     6
 0.0000000243     3    10     9     5
 0.0103474658     3    10     9     6
 -0.1679278409     3    10    10     3
 0.0000000092     3    10    10     4
 0.0000000076     4     1     1     3
 -0.2689223893     4     1     1     4
 0.0020869659     4     1     2     3
 0.0000000079     4     1     2     4
 0.0000664273     4     1     3     2
 0.0000004060     4     1     3     7
 -0.0000000013     4     1     3    10
 -0.0000000003     4     1     5     8
 0.0002493170     4     1     5     9
 -0.0000729812     4     1     6     8
 -0.0000000002     4     1     6     9
 0.0009671621     4     1     7     3
 -0.0000000019     4     1     7     4
 0.0000000009     4     1     8     5
 0.0023292430     4     1     8     6
 0.0044613094     4     1     9     5
 -0.0000000041     4     1     9     6
 -0.0000000037     4     1    10     3
 0.0210479482     4     1    10     4
 0.0013732730     4     2     1     3
 0.0000000079     4     2     1     4
 -0.0000000076     4     2     2     3
 -0.2652362985     4     2     2     4
 -0.0000664273     4     2     3     1
 -0.0009604948     4     2     3    10
 -0.0002176956     4     2     5     8
 -0.0000000004     4     2     5     9
 -0.0001048571     4     2     6     9
 -0.0000000022     4     2     7     3
 -0.0009682749     4     2     7     4
 -0.0008216656     4     2     8     5
 -0.0000000059     4     2     8     6
 -0.0000000092     4     2     9     5
 -0.0012760882     4     2     9     6
 -0.0014898575     4     2    10     3
 -0.0000000288     4     2    10     4
 -0.0000000076     4     3     1     1
 -0.0013732730     4     3     1     2
 -0.0009667560     4     3     1     7
 0.0000000023     4     3     1    10
 -0.0020869659     4     3     2     1
 0.0000000076     4     3     2     2
 0.0000000022     4     3     2     7
 0.0003709352     4     3     2    10
 -0.2505467336     4     3     3     4
 -0.0000000004     4     3     5     5
 -0.0188814269     4     3     5     6
 0.0279290357     4     3     6     5
 0.0000000004     4     3     6     6
 -0.0009671621     4     3     7     1
 0.0000000022     4     3     7     2
 -0.0088902034     4     3     7    10
 0.0000000095     4     3     8     8
 0.0074290987     4     3     8     9
 0.0077541715     4     3     9     8
 -0.0000000095     4     3     9     9
 0.0000000037     4     3    10     1
 0.0014898575     4     3    10     2
 -0.0088913869     4     3    10     7
 -0.0000000092     4     3    10    10
 0.2689223893     4     4     1     1
 -0.0000000079     4     4     1     2
 0.0000000019     4     4     1     7
 -0.0210479482     4     4     1    10
 -0.0000000079     4     4     2     1
 0.2652362985     4     4     2     2
 0.0009682749     4     4     2     7
 0.0000000288     4     4     2    10
 0.2505467336     4     4     3     3
 0.2390058129     4     4     5     5
 0.0000000004     4     4     5     6
 0.0000000004     4     4     6     5
 0.2299582075     4     4     6     6
 0.0000000019     4     4     7     1
 0.0009682749     4     4     7     2
 0.1877384880     4     4     7     7
 0.0000000078     4     4     7    10
 0.1693096792     4     4     8     8
 0.0000000095     4     4     8     9
 0.0000000095     4     4     9     8
 0.1844929474     4     4     9     9
 -0.0210479482     4     4    10     1
 0.0000000288     4     4    10     2
 0.0000000078     4     4    10     7
 0.1777664852     4     4    10    10
 -0.0000000013     4     5     1     8
 -0.0029359643     4     5     1     9
 0.0002074636     4     5     2     8
 0.0000000062     4     5     2     9
 -0.0455877493     4     5     3     6
 0.0000000004     4     5     5     3
 -0.2390058129     4     5     5     4
 -0.0279290357     4     5     6     3
 -0.0000000004     4     5     6     4
 -0.0251560551     4     5     7     8
 0.0000000155     4     5     7     9
 -0.0000000009     4     5     8     1
 0.0008216656     4     5     8     2
 -0.0249362092     4     5     8     7
 0.0000000224     4     5     8    10
 -0.0044613094     4     5     9     1
 0.0000000092     4     5     9     2
 0.0000000153     4     5     9     7
 0.0216875877     4     5     9    10
 0.0000000225     4     5    10     8
 0.0217200463     4     5    10     9
 -0.0020594283     4     6     1     8
 0.0000000026     4     6     1     9
 0.0000000049     4     6     2     8
 0.0006345062     4     6     2     9
 0.0455877493     4     6     3     5
 0.0188814269     4     6     5     3
 -0.0000000004     4     6     5     4
 -0.0000000004     4     6     6     3
 -0.2299582075     4     6     6     4
 -0.0000000155     4     6     7     8
 -0.0251560347     4     6     7     9
 -0.0023292430     4     6     8     1
 0.0000000059     4     6     8     2
 -0.0000000154     4     6     8     7
 0.0156351742     4     6     8    10
 0.0000000041     4     6     9     1
 0.0012760882     4     6     9     2
 -0.0249363081     4     6     9     7
 -0.0000000240     4     6     9    10
 0.0156424065     4     6    10     8
 -0.0000000240     4     6    10     9
 0.0009667560     4     7     1     3
 -0.0000000019     4     7     1     4
 -0.0000000022     4     7     2     3
 -0.0009682749     4     7     2     4
 -0.0000004060     4     7     3     1
 0.0000036481     4     7     3    10
 -0.0001060567     4     7     5     8
 -0.0000000001     4     7     6     8
 -0.0001059373     4     7     6     9
 -0.1877384880     4     7     7     4
 0.0249362092     4     7     8     5
 0.0000000154     4     7     8     6
 -0.0000000153     4     7     9     5
 0.0249363081     4     7     9     6
 0.0088913869     4     7    10     3
 -0.0000000078     4     7    10     4
 0.0000000013     4     8     1     5
 0.0020594283     4     8     1     6
 -0.0002074636     4     8     2     5
 -0.0000000049     4     8     2     6
 -0.0002836080     4     8     3     9
 0.0000000003     4     8     5     1
 0.0002176956     4     8     5     2
 0.0001060567     4     8     5     7
 0.0000729812     4     8     6     1
 0.0000000001     4     8     6     7
 0.0000262431     4     8     6    10
 0.0251560551     4     8     7     5
 0.0000000155     4     8     7     6
 -0.0000000095     4     8     8     3
 -0.1693096792     4     8     8     4
 -0.0077541715     4     8     9     3
 -0.0000000095     4     8     9     4
 -0.0000000225     4     8    10     5
 -0.0156424065     4     8    10     6
 0.0029359643     4     9     1     5
 -0.0000000026     4     9     1     6
 -0.0000000062     4     9     2     5
 -0.0006345062     4     9     2     6
 0.0002836080     4     9     3     8
 -0.0002493170     4     9     5     1
 0.0000000004     4     9     5     2
 -0.0000046776     4     9     5    10
 0.0000000002     4     9     6     1
 0.0001048571     4     9     6     2
 0.0001059373     4     9     6     7
 0.0000000001     4     9     6    10
 -0.0000000155     4     9     7     5
 0.0251560347     4     9     7     6
 -0.0074290987     4     9     8     3
 -0.0000000095     4     9     8     4
 0.0000000095     4     9     9     3
 -0.1844929474     4     9     9     4
 -0.0217200463     4     9    10     5
 0.0000000240     4     9    10     6
 -0.0000000023     4    10     1     3
 0.0210479482     4    10     1     4
 -0.0003709352     4    10     2     3
 -0.0000000288     4    10     2     4
 0.0000000013     4    10     3     1
 0.0009604948     4    10     3     2
 -0.0000036481     4    10     3     7
 0.0000046776     4    10     5     9
 -0.0000262431     4    10     6     8
 -0.0000000001     4    10     6     9
 0.0088902034     4    10     7     3