&FCI NORB=  9,NELEC= 10,MS2=0,
 ORBSYM=1,1,1,1,1,1,1,1,1
 ISYM=1,
&END
 0.2704940520     1     1     2     2
 0.2704904303     1     1     3     3
 -0.0000001715     1     1     3     8
 0.2144075887     1     1     4     4
 0.2144101357     1     1     5     5
 0.2520791539     1     1     6     6
 0.2520785659     1     1     7     7
 -0.0000001715     1     1     8     3
 0.1880247584     1     1     8     8
 0.1767166638     1     1     9     9
 -0.2704940520     1     2     2     1
 -0.0000000171     1     2     2     6
 0.0023389925     1     2     2     7
 0.0023432110     1     2     3     6
 0.0000000170     1     2     3     7
 0.0000000006     1     2     4     9
 -0.0001175484     1     2     5     9
 -0.0000014090     1     2     6     3
 0.0005697323     1     2     6     8
 -0.0000000021     1     2     7     8
 -0.0012204684     1     2     8     6
 0.0000000044     1     2     8     7
 0.0000000153     1     2     9     4
 -0.0032052191     1     2     9     5
 0.0023447927     1     3     2     6
 0.0000000170     1     3     2     7
 -0.2704904303     1     3     3     1
 0.0000000170     1     3     3     6
 -0.0023338524     1     3     3     7
 -0.0001173928     1     3     4     9
 -0.0000000006     1     3     5     9
 0.0000014090     1     3     6     2
 0.0000000020     1     3     6     8
 0.0005730107     1     3     7     8
 0.0000001715     1     3     8     1
 -0.0000000044     1     3     8     6
 -0.0012327260     1     3     8     7
 -0.0032517508     1     3     9     4
 -0.0000000152     1     3     9     5
 -0.0000000146     1     4     2     9
 0.0031032933     1     4     3     9
 -0.2144075887     1     4     4     1
 0.0000000001     1     4     4     6
 0.0264027561     1     4     4     7
 0.0263606819     1     4     5     6
 -0.0000000001     1     4     5     7
 -0.0000139840     1     4     6     5
 -0.0376712197     1     4     8     9
 -0.0000000153     1     4     9     2
 0.0032517508     1     4     9     3
 -0.0373992276     1     4     9     8
 0.0030890291     1     5     2     9
 0.0000000146     1     5     3     9
 0.0263746889     1     5     4     6
 -0.0000000001     1     5     4     7
 -0.2144101357     1     5     5     1
 -0.0000000002     1     5     5     6
 -0.0263879422     1     5     5     7
 0.0000139840     1     5     6     4
 0.0000000438     1     5     8     9
 0.0032052191     1     5     9     2
 0.0000000152     1     5     9     3
 0.0000000435     1     5     9     8
 0.0000000171     1     6     2     2
 -0.0023447927     1     6     2     3
 0.0020149447     1     6     2     8
 -0.0023432110     1     6     3     2
 -0.0000000170     1     6     3     3
 0.0000000073     1     6     3     8
 -0.0000000001     1     6     4     4
 -0.0263746889     1     6     4     5
 -0.0263606819     1     6     5     4
 0.0000000002     1     6     5     5
 -0.2520791539     1     6     6     1
 0.0000003333     1     6     6     7
 0.0012204684     1     6     8     2
 0.0000000044     1     6     8     3
 -0.0000000191     1     6     9     9
 -0.0023389925     1     7     2     2
 -0.0000000170     1     7     2     3
 -0.0000000074     1     7     2     8
 -0.0000000170     1     7     3     2
 0.0023338524     1     7     3     3
 0.0020990553     1     7     3     8
 -0.0264027561     1     7     4     4
 0.0000000001     1     7     4     5
 0.0000000001     1     7     5     4
 0.0263879422     1     7     5     5
 -0.0000003333     1     7     6     6
 -0.2520785659     1     7     7     1
 -0.0000000044     1     7     8     2
 0.0012327260     1     7     8     3
 -0.0000012532     1     7     8     8
 0.0082233932     1     7     9     9
 -0.0020149447     1     8     2     6
 0.0000000074     1     8     2     7
 0.0000001715     1     8     3     1
 -0.0000000073     1     8     3     6
 -0.0020990553     1     8     3     7
 -0.0002909510     1     8     4     9
 0.0000000004     1     8     5     9
 -0.0005697323     1     8     6     2
 -0.0000000020     1     8     6     3
 0.0000000021     1     8     7     2
 -0.0005730107     1     8     7     3
 -0.1880247584     1     8     8     1
 0.0000012532     1     8     8     7
 0.0373992276     1     8     9     4
 -0.0000000435     1     8     9     5
 0.0000000146     1     9     2     4
 -0.0030890291     1     9     2     5
 -0.0031032933     1     9     3     4
 -0.0000000146     1     9     3     5
 -0.0000000006     1     9     4     2
 0.0001173928     1     9     4     3
 0.0002909510     1     9     4     8
 0.0001175484     1     9     5     2
 0.0000000006     1     9     5     3
 -0.0000000004     1     9     5     8
 0.0376712197     1     9     8     4
 -0.0000000438     1     9     8     5
 -0.1767166638     1     9     9     1
 0.0000000191     1     9     9     6
 -0.0082233932     1     9     9     7
 -0.2704940520     2     1     1     2
 -0.0000014090     2     1     3     6
 0.0000000153     2     1     4     9
 -0.0032052191     2     1     5     9
 -0.0000000171     2     1     6     2
 0.0023432110     2     1     6     3
 -0.0012204684     2     1     6     8
 0.0023389925     2     1     7     2
 0.0000000170     2     1     7     3
 0.0000000044     2     1     7     8
 0.0005697323     2     1     8     6
 -0.0000000021     2     1     8     7
 0.0000000006     2     1     9     4
 -0.0001175484     2     1     9     5
 0.2704940520     2     2     1     1
 0.0000000171     2     2     1     6
 -0.0023389925     2     2     1     7
 0.2585076488     2     2     3     3
 0.0000008865     2     2     3     8
 0.2666027186     2     2     4     4
 0.0000000112     2     2     4     5
 0.0000000112     2     2     5     4
 0.2696792544     2     2     5     5
 0.0000000171     2     2     6     1
 0.2608029442     2     2     6     6
 -0.0000000144     2     2     6     7
 -0.0023389925     2     2     7     1
 -0.0000000144     2     2     7     6
 0.2567714453     2     2     7     7
 0.0000008865     2     2     8     3
 0.1895631707     2     2     8     8
 0.1752142488     2     2     9     9
 -0.0023447927     2     3     1     6
 -0.0000000170     2     3     1     7
 -0.2585076488     2     3     3     2
 -0.0000000112     2     3     4     4
 -0.0019222291     2     3     4     5
 -0.0011538869     2     3     5     4
 0.0000000112     2     3     5     5
 -0.0023432110     2     3     6     1
 0.0000000144     2     3     6     6
 0.0011706195     2     3     6     7
 -0.0000000170     2     3     7     1
 0.0028532527     2     3     7     6
 -0.0000000143     2     3     7     7
 -0.0000008865     2     3     8     2
 -0.0000000244     2     3     9     9
 0.0000000146     2     4     1     9
 -0.0000759406     2     4     3     5
 -0.2666027186     2     4     4     2
 0.0000000112     2     4     4     3
 0.0000000030     2     4     4     8
 -0.0000000112     2     4     5     2
 0.0011538869     2     4     5     3
 -0.0009487665     2     4     5     8
 -0.0012152902     2     4     6     9
 0.0000000133     2     4     7     9
 0.0000017391     2     4     8     5
 -0.0000000006     2     4     9     1
 -0.0001076233     2     4     9     6
 0.0000000005     2     4     9     7
 -0.0030890291     2     5     1     9
 0.0000759406     2     5     3     4
 -0.0000000112     2     5     4     2
 0.0019222291     2     5     4     3
 -0.0008965281     2     5     4     8
 -0.2696792544     2     5     5     2
 -0.0000000112     2     5     5     3
 -0.0000000033     2     5     5     8
 0.0000000022     2     5     6     9
 0.0020418454     2     5     7     9
 -0.0000017391     2     5     8     4
 0.0001175484     2     5     9     1
 -0.0000000004     2     5     9     6
 -0.0000879589     2     5     9     7
 -0.0000000171     2     6     1     2
 0.0023447927     2     6     1     3
 -0.0020149447     2     6     1     8
 0.0000014090     2     6     3     1
 -0.0007816812     2     6     3     7
 -0.0008461839     2     6     4     9
 0.0000000029     2     6     5     9
 -0.2608029442     2     6     6     2
 -0.0000000144     2     6     6     3
 -0.0000000010     2     6     6     8
 0.0000000144     2     6     7     2
 -0.0028532527     2     6     7     3
 0.0002641452     2     6     7     8
 -0.0005697323     2     6     8     1
 -0.0000012528     2     6     8     7
 0.0001076233     2     6     9     4
 0.0000000004     2     6     9     5
 0.0023389925     2     7     1     2
 0.0000000170     2     7     1     3
 0.0000000074     2     7     1     8
 0.0007816812     2     7     3     6
 0.0000000108     2     7     4     9
 0.0020671401     2     7     5     9
 0.0000000144     2     7     6     2
 -0.0011706195     2     7     6     3
 0.0003183063     2     7     6     8
 -0.2567714453     2     7     7     2
 0.0000000143     2     7     7     3
 0.0000000013     2     7     7     8
 0.0000000021     2     7     8     1
 0.0000012528     2     7     8     6
 -0.0000000005     2     7     9     4
 0.0000879589     2     7     9     5
 0.0020149447     2     8     1     6
 -0.0000000074     2     8     1     7
 -0.0000008865     2     8     3     2
 -0.0000000030     2     8     4     4
 0.0008965281     2     8     4     5
 0.0009487665     2     8     5     4
 0.0000000033     2     8     5     5
 0.0012204684     2     8     6     1
 0.0000000010     2     8     6     6
 -0.0003183063     2     8     6     7
 -0.0000000044     2     8     7     1
 -0.0002641452     2     8     7     6
 -0.0000000013     2     8     7     7
 -0.1895631707     2     8     8     2
 -0.0000000057     2     8     9     9
 -0.0000000146     2     9     1     4
 0.0030890291     2     9     1     5
 -0.0000000153     2     9     4     1
 0.0008461839     2     9     4     6
 -0.0000000108     2     9     4     7
 0.0032052191     2     9     5     1
 -0.0000000029     2     9     5     6
 -0.0020671401     2     9     5     7
 0.0012152902     2     9     6     4
 -0.0000000022     2     9     6     5
 -0.0000000133     2     9     7     4
 -0.0020418454     2     9     7     5
 -0.1752142488     2     9     9     2
 0.0000000244     2     9     9     3
 0.0000000057     2     9     9     8
 -0.2704904303     3     1     1     3
 0.0000001715     3     1     1     8
 0.0000014090     3     1     2     6
 -0.0032517508     3     1     4     9
 -0.0000000152     3     1     5     9
 0.0023447927     3     1     6     2
 0.0000000170     3     1     6     3
 -0.0000000044     3     1     6     8
 0.0000000170     3     1     7     2
 -0.0023338524     3     1     7     3
 -0.0012327260     3     1     7     8
 0.0000000020     3     1     8     6
 0.0005730107     3     1     8     7
 -0.0001173928     3     1     9     4
 -0.0000000006     3     1     9     5
 -0.0023432110     3     2     1     6
 -0.0000000170     3     2     1     7
 -0.2585076488     3     2     2     3
 -0.0000008865     3     2     2     8
 -0.0000000112     3     2     4     4
 -0.0011538869     3     2     4     5
 -0.0019222291     3     2     5     4
 0.0000000112     3     2     5     5
 -0.0023447927     3     2     6     1
 0.0000000144     3     2     6     6
 0.0028532527     3     2     6     7
 -0.0000000170     3     2     7     1
 0.0011706195     3     2     7     6
 -0.0000000143     3     2     7     7
 -0.0000000244     3     2     9     9
 0.2704904303     3     3     1     1
 -0.0000000170     3     3     1     6
 0.0023338524     3     3     1     7
 0.2585076488     3     3     2     2
 0.2696802868     3     3     4     4
 -0.0000000112     3     3     4     5
 -0.0000000112     3     3     5     4
 0.2666053366     3     3     5     5
 -0.0000000170     3     3     6     1
 0.2567709026     3     3     6     6
 0.0000000143     3     3     6     7
 0.0023338524     3     3     7     1
 0.0000000143     3     3     7     6
 0.2607855150     3     3     7     7
 0.1895593943     3     3     8     8
 0.1850620345     3     3     9     9
 -0.0031032933     3     4     1     9
 0.0000759406     3     4     2     5
 0.0000000112     3     4     4     2
 -0.2696802868     3     4     4     3
 -0.0008436776     3     4     4     8
 0.0019222291     3     4     5     2
 0.0000000112     3     4     5     3
 -0.0000000034     3     4     5     8
 -0.0000000065     3     4     6     9
 -0.0038550738     3     4     7     9
 0.0000000001     3     4     8     5
 0.0001173928     3     4     9     1
 -0.0000000003     3     4     9     6
 -0.0002163193     3     4     9     7
 -0.0000000146     3     5     1     9
 -0.0000759406     3     5     2     4
 0.0011538869     3     5     4     2
 0.0000000112     3     5     4     3
 -0.0000000031     3     5     4     8
 -0.0000000112     3     5     5     2
 -0.2666053366     3     5     5     3
 0.0008976691     3     5     5     8
 0.0005812369     3     5     6     9
 0.0000000089     3     5     7     9
 -0.0000000001     3     5     8     4
 0.0000000006     3     5     9     1
 0.0001927283     3     5     9     6
 -0.0000000002     3     5     9     7
 0.0023432110     3     6     1     2
 0.0000000170     3     6     1     3
 -0.0000000073     3     6     1     8
 -0.0000014090     3     6     2     1
 0.0007816812     3     6     2     7
 -0.0000000052     3     6     4     9
 0.0001201276     3     6     5     9
 -0.0000000144     3     6     6     2
 -0.2567709026     3     6     6     3
 0.0002826880     3     6     6     8
 -0.0011706195     3     6     7     2
 -0.0000000143     3     6     7     3
 0.0000000010     3     6     7     8
 -0.0000000020     3     6     8     1
 0.0000000003     3     6     9     4
 -0.0001927283     3     6     9     5
 0.0000000170     3     7     1     2
 -0.0023338524     3     7     1     3
 -0.0020990553     3     7     1     8
 -0.0007816812     3     7     2     6
 -0.0030090755     3     7     4     9
 0.0000000085     3     7     5     9
 -0.0028532527     3     7     6     2
 -0.0000000143     3     7     6     3
 0.0000000013     3     7     6     8
 0.0000000143     3     7     7     2
 -0.2607855150     3     7     7     3
 -0.0003365737     3     7     7     8
 -0.0005730107     3     7     8     1
 0.0002163193     3     7     9     4
 0.0000000002     3     7     9     5
 -0.0000001715     3     8     1     1
 0.0000000073     3     8     1     6
 0.0020990553     3     8     1     7
 0.0000008865     3     8     2     2
 0.0008436776     3     8     4     4
 0.0000000031     3     8     4     5
 0.0000000034     3     8     5     4
 -0.0008976691     3     8     5     5
 0.0000000044     3     8     6     1
 -0.0002826880     3     8     6     6
 -0.0000000013     3     8     6     7
 0.0012327260     3     8     7     1
 -0.0000000010     3     8     7     6
 0.0003365737     3     8     7     7
 -0.1895593943     3     8     8     3
 0.0009628996     3     8     9     9
 0.0031032933     3     9     1     4
 0.0000000146     3     9     1     5
 0.0032517508     3     9     4     1
 0.0000000052     3     9     4     6
 0.0030090755     3     9     4     7
 0.0000000152     3     9     5     1
 -0.0001201276     3     9     5     6
 -0.0000000085     3     9     5     7
 0.0000000065     3     9     6     4
 -0.0005812369     3     9     6     5
 0.0038550738     3     9     7     4
 -0.0000000089     3     9     7     5
 0.0000000244     3     9     9     2
 -0.1850620345     3     9     9     3
 -0.0009628996     3     9     9     8
 -0.2144075887     4     1     1     4
 -0.0000000153     4     1     2     9
 0.0032517508     4     1     3     9
 -0.0000139840     4     1     5     6
 0.0000000001     4     1     6     4
 0.0263606819     4     1     6     5
 0.0264027561     4     1     7     4
 -0.0000000001     4     1     7     5
 -0.0373992276     4     1     8     9
 -0.0000000146     4     1     9     2
 0.0031032933     4     1     9     3
 -0.0376712197     4     1     9     8
 -0.0000000006     4     2     1     9
 -0.2666027186     4     2     2     4
 -0.0000000112     4     2     2     5
 0.0000000112     4     2     3     4
 0.0011538869     4     2     3     5
 -0.0000759406     4     2     5     3
 0.0000017391     4     2     5     8
 -0.0001076233     4     2     6     9
 0.0000000005     4     2     7     9
 0.0000000030     4     2     8     4
 -0.0009487665     4     2     8     5
 0.0000000146     4     2     9     1
 -0.0012152902     4     2     9     6
 0.0000000133     4     2     9     7
 0.0001173928     4     3     1     9
 0.0000000112     4     3     2     4
 0.0019222291     4     3     2     5
 -0.2696802868     4     3     3     4
 0.0000000112     4     3     3     5
 0.0000759406     4     3     5     2
 0.0000000001     4     3     5     8
 -0.0000000003     4     3     6     9
 -0.0002163193     4     3     7     9
 -0.0008436776     4     3     8     4
 -0.0000000034     4     3     8     5
 -0.0031032933     4     3     9     1
 -0.0000000065     4     3     9     6
 -0.0038550738     4     3     9     7
 0.2144075887     4     4     1     1
 -0.0000000001     4     4     1     6
 -0.0264027561     4     4     1     7
 0.2666027186     4     4     2     2
 -0.0000000112     4     4     2     3
 -0.0000000030     4     4     2     8
 -0.0000000112     4     4     3     2
 0.2696802868     4     4     3     3
 0.0008436776     4     4     3     8
 0.2505094616     4     4     5     5
 -0.0000000001     4     4     6     1
 0.2309076105     4     4     6     6
 -0.0000000008     4     4     6     7
 -0.0264027561     4     4     7     1
 -0.0000000008     4     4     7     6
 0.2405455534     4     4     7     7
 -0.0000000030     4     4     8     2
 0.0008436776     4     4     8     3
 0.1878678158     4     4     8     8
 0.1843802986     4     4     9     9
 -0.0263746889     4     5     1     6
 0.0000000001     4     5     1     7
 0.0000000112     4     5     2     2
 -0.0019222291     4     5     2     3
 0.0008965281     4     5     2     8
 -0.0011538869     4     5     3     2
 -0.0000000112     4     5     3     3
 0.0000000031     4     5     3     8
 -0.2505094616     4     5     5     4
 -0.0263606819     4     5     6     1
 0.0000000007     4     5     6     6
 -0.0273130540     4     5     6     7
 0.0000000001     4     5     7     1
 0.0176412741     4     5     7     6
 -0.0000000007     4     5     7     7
 0.0009487665     4     5     8     2
 0.0000000034     4     5     8     3
 -0.0000000174     4     5     9     9
 0.0000000001     4     6     1     4
 0.0263746889     4     6     1     5
 0.0008461839     4     6     2     9
 0.0000000052     4     6     3     9
 0.0000139840     4     6     5     1
 -0.0448006372     4     6     5     7
 -0.2309076105     4     6     6     4
 -0.0000000007     4     6     6     5
 0.0000000008     4     6     7     4
 -0.0176412741     4     6     7     5
 0.0000000287     4     6     8     9
 0.0012152902     4     6     9     2
 0.0000000065     4     6     9     3
 0.0000000285     4     6     9     8
 0.0264027561     4     7     1     4
 -0.0000000001     4     7     1     5
 -0.0000000108     4     7     2     9
 0.0030090755     4     7     3     9
 0.0448006372     4     7     5     6
 0.0000000008     4     7     6     4
 0.0273130540     4     7     6     5
 -0.2405455534     4     7     7     4
 0.0000000007     4     7     7     5
 -0.0246914126     4     7     8     9
 -0.0000000133     4     7     9     2
 0.0038550738     4     7     9     3
 -0.0244664448     4     7     9     8
 0.0002909510     4     8     1     9
 0.0000000030     4     8     2     4
 -0.0008965281     4     8     2     5
 -0.0008436776     4     8     3     4
 -0.0000000031     4     8     3     5
 -0.0000017391     4     8     5     2
 -0.0000000001     4     8     5     3
 0.0000000002     4     8     6     9
 -0.0001197618     4     8     7     9
 -0.1878678158     4     8     8     4
 0.0376712197     4     8     9     1
 -0.0000000285     4     8     9     6
 0.0244664448     4     8     9     7
 0.0000000006     4     9     1     2
 -0.0001173928     4     9     1     3
 -0.0002909510     4     9     1     8
 0.0000000153     4     9     2     1
 -0.0008461839     4     9     2     6
 0.0000000108     4     9     2     7
 -0.0032517508     4     9     3     1
 -0.0000000052     4     9     3     6
 -0.0030090755     4     9     3     7
 0.0001076233     4     9     6     2
 0.0000000003     4     9     6     3
 -0.0000000002     4     9     6     8
 -0.0000000005     4     9     7     2
 0.0002163193     4     9     7     3
 0.0001197618     4     9     7     8
 0.0373992276     4     9     8     1
 -0.0000000287     4     9     8     6
 0.0246914126     4     9     8     7
 -0.1843802986     4     9     9     4
 0.0000000174     4     9     9     5
 -0.2144101357     5     1     1     5
 0.0032052191     5     1     2     9
 0.0000000152     5     1     3     9
 0.0000139840     5     1     4     6
 0.0263746889     5     1     6     4
 -0.0000000002     5     1     6     5
 -0.0000000001     5     1     7     4
 -0.0263879422     5     1     7     5
 0.0000000435     5     1     8     9
 0.0030890291     5     1     9     2
 0.0000000146     5     1     9     3
 0.0000000438     5     1     9     8
 0.0001175484     5     2     1     9
 -0.0000000112     5     2     2     4
 -0.2696792544     5     2     2     5
 0.0019222291     5     2     3     4
 -0.0000000112     5     2     3     5
 0.0000759406     5     2     4     3
 -0.0000017391     5     2     4     8
 -0.0000000004     5     2     6     9
 -0.0000879589     5     2     7     9
 -0.0008965281     5     2     8     4
 -0.0000000033     5     2     8     5
 -0.0030890291     5     2     9     1
 0.0000000022     5     2     9     6
 0.0020418454     5     2     9     7
 0.0000000006     5     3     1     9
 0.0011538869     5     3     2     4
 -0.0000000112     5     3     2     5
 0.0000000112     5     3     3     4
 -0.2666053366     5     3     3     5
 -0.0000759406     5     3     4     2
 -0.0000000001     5     3     4     8
 0.0001927283     5     3     6     9
 -0.0000000002     5     3     7     9
 -0.0000000031     5     3     8     4
 0.0008976691     5     3     8     5
 -0.0000000146     5     3     9     1
 0.0005812369     5     3     9     6
 0.0000000089     5     3     9     7
 -0.0263606819     5     4     1     6
 0.0000000001     5     4     1     7
 0.0000000112     5     4     2     2
 -0.0011538869     5     4     2     3
 0.0009487665     5     4     2     8
 -0.0019222291     5     4     3     2
 -0.0000000112     5     4     3     3
 0.0000000034     5     4     3     8
 -0.2505094616     5     4     4     5
 -0.0263746889     5     4     6     1
 0.0000000007     5     4     6     6
 0.0176412741     5     4     6     7
 0.0000000001     5     4     7     1
 -0.0273130540     5     4     7     6
 -0.0000000007     5     4     7     7
 0.0008965281     5     4     8     2
 0.0000000031     5     4     8     3
 -0.0000000174     5     4     9     9
 0.2144101357     5     5     1     1
 0.0000000002     5     5     1     6
 0.0263879422     5     5     1     7
 0.2696792544     5     5     2     2
 0.0000000112     5     5     2     3
 0.0000000033     5     5     2     8
 0.0000000112     5     5     3     2
 0.2666053366     5     5     3     3
 -0.0008976691     5     5     3     8
 0.2505094616     5     5     4     4
 0.0000000002     5     5     6     1
 0.2406004719     5     5     6     6
 0.0000000007     5     5     6     7
 0.0263879422     5     5     7     1
 0.0000000007     5     5     7     6
 0.2308949097     5     5     7     7
 0.0000000033     5     5     8     2
 -0.0008976691     5     5     8     3
 0.1878683264     5     5     8     8
 0.1694543559     5     5     9     9
 0.0263606819     5     6     1     4
 -0.0000000002     5     6     1     5
 -0.0000000029     5     6     2     9
 -0.0001201276     5     6     3     9
 -0.0000139840     5     6     4     1
 0.0448006372     5     6     4     7
 -0.0000000007     5     6     6     4
 -0.2406004719     5     6     6     5
 0.0273130540     5     6     7     4
 -0.0000000007     5     6     7     5
 -0.0247251990     5     6     8     9
 -0.0000000022     5     6     9     2
 -0.0005812369     5     6     9     3
 -0.0245033351     5     6     9     8
 -0.0000000001     5     7     1     4
 -0.0263879422     5     7     1     5
 -0.0020671401     5     7     2     9
 -0.0000000085     5     7     3     9
 -0.0448006372     5     7     4     6
 -0.0176412741     5     7     6     4
 -0.0000000007     5     7     6     5
 0.0000000007     5     7     7     4
 -0.2308949097     5     7     7     5
 -0.0000000287     5     7     8     9
 -0.0020418454     5     7     9     2
 -0.0000000089     5     7     9     3
 -0.0000000284     5     7     9     8
 -0.0000000004     5     8     1     9
 -0.0009487665     5     8     2     4
 -0.0000000033     5     8     2     5
 -0.0000000034     5     8     3     4
 0.0008976691     5     8     3     5
 0.0000017391     5     8     4     2
 0.0000000001     5     8     4     3
 -0.0001176227     5     8     6     9
 -0.0000000001     5     8     7     9
 -0.1878683264     5     8     8     5
 -0.0000000438     5     8     9     1
 0.0245033351     5     8     9     6
 0.0000000284     5     8     9     7
 -0.0001175484     5     9     1     2
 -0.0000000006     5     9     1     3
 0.0000000004     5     9     1     8
 -0.0032052191     5     9     2     1
 0.0000000029     5     9     2     6
 0.0020671401     5     9     2     7
 -0.0000000152     5     9     3     1
 0.0001201276     5     9     3     6
 0.0000000085     5     9     3     7
 0.0000000004     5     9     6     2
 -0.0001927283     5     9     6     3
 0.0001176227     5     9     6     8
 0.0000879589     5     9     7     2
 0.0000000002     5     9     7     3
 0.0000000001     5     9     7     8
 -0.0000000435     5     9     8     1
 0.0247251990     5     9     8     6
 0.0000000287     5     9     8     7
 0.0000000174     5     9     9     4
 -0.1694543559     5     9     9     5
 -0.2520791539     6     1     1     6
 0.0000000171     6     1     2     2
 -0.0023432110     6     1     2     3
 0.0012204684     6     1     2     8
 -0.0023447927     6     1     3     2
 -0.0000000170     6     1     3     3
 0.0000000044     6     1     3     8
 -0.0000000001     6     1     4     4
 -0.0263606819     6     1     4     5
 -0.0263746889     6     1     5     4
 0.0000000002     6     1     5     5
 0.0000003333     6     1     7     6
 0.0020149447     6     1     8     2
 0.0000000073     6     1     8     3
 -0.0000000191     6     1     9     9
 0.0000014090     6     2     1     3
 -0.0005697323     6     2     1     8
 -0.0000000171     6     2     2     1
 -0.2608029442     6     2     2     6
 0.0000000144     6     2     2     7
 0.0023447927     6     2     3     1
 -0.0000000144     6     2     3     6
 -0.0028532527     6     2     3     7
 0.0001076233     6     2     4     9
 0.0000000004     6     2     5     9
 -0.0007816812     6     2     7     3
 -0.0000012528     6     2     7     8
 -0.0020149447     6     2     8     1
 -0.0000000010     6     2     8     6
 0.0002641452     6     2     8     7
 -0.0008461839     6     2     9     4
 0.0000000029     6     2     9     5
 -0.0000014090     6     3     1     2
 -0.0000000020     6     3     1     8
 0.0023432110     6     3     2     1
 -0.0000000144     6     3     2     6
 -0.0011706195     6     3     2     7
 0.0000000170     6     3     3     1
 -0.2567709026     6     3     3     6
 -0.0000000143     6     3     3     7
 0.0000000003     6     3     4     9
 -0.0001927283     6     3     5     9
 0.0007816812     6     3     7     2
 -0.0000000073     6     3     8     1
 0.0002826880     6     3     8     6
 0.0000000010     6     3     8     7
 -0.0000000052     6     3     9     4
 0.0001201276     6     3     9     5
 0.0000139840     6     4     1     5
 0.0012152902     6     4     2     9
 0.0000000065     6     4     3     9
 0.0000000001     6     4     4     1
 -0.2309076105     6     4     4     6
 0.0000000008     6     4     4     7
 0.0263746889     6     4     5     1
 -0.0000000007     6     4     5     6
 -0.0176412741     6     4     5     7
 -0.0448006372     6     4     7     5
 0.0000000285     6     4     8     9
 0.0008461839     6     4     9     2
 0.0000000052     6     4     9     3
 0.0000000287     6     4     9     8
 -0.0000139840     6     5     1     4
 -0.0000000022     6     5     2     9
 -0.0005812369     6     5     3     9
 0.0263606819     6     5     4     1
 -0.0000000007     6     5     4     6
 0.0273130540     6     5     4     7
 -0.0000000002     6     5     5     1
 -0.2406004719     6     5     5     6
 -0.0000000007     6     5     5     7
 0.0448006372     6     5     7     4
 -0.0245033351     6     5     8     9
 -0.0000000029     6     5     9     2
 -0.0001201276     6     5     9     3
 -0.0247251990     6     5     9     8
 0.2520791539     6     6     1     1
 -0.0000003333     6     6     1     7
 0.2608029442     6     6     2     2
 0.0000000144     6     6     2     3
 0.0000000010     6     6     2     8
 0.0000000144     6     6     3     2
 0.2567709026     6     6     3     3
 -0.0002826880     6     6     3     8
 0.2309076105     6     6     4     4
 0.0000000007     6     6     4     5
 0.0000000007     6     6     5     4
 0.2406004719     6     6     5     5
 -0.0000003333     6     6     7     1
 0.2438250368     6     6     7     7
 0.0000000010     6     6     8     2
 -0.0002826880     6     6     8     3
 0.1843865196     6     6     8     8
 0.1699397613     6     6     9     9
 0.0000003333     6     7     1     6
 -0.0000000144     6     7     2     2
 0.0011706195     6     7     2     3
 -0.0003183063     6     7     2     8
 0.0028532527     6     7     3     2
 0.0000000143     6     7     3     3
 -0.0000000013     6     7     3     8
 -0.0000000008     6     7     4     4
 -0.0273130540     6     7     4     5