&FCI NORB= 13,NELEC= 14,MS2=0,
 ORBSYM=1,1,1,1,1,1,1,1,1,1,1,1,1
 ISYM=1,
&END
 0.4030604058     1     1     2     2
 0.0043969724     1     1     2     4
 0.0068158158     1     1     2    10
 0.7131526770     1     1     3     3
 0.0000000001     1     1     3     4
 -0.0722614228     1     1     3     5
 -0.0000000001     1     1     3    10
 -0.0541397021     1     1     3    11
 0.0043969724     1     1     4     2
 0.0000000001     1     1     4     3
 0.6240381620     1     1     4     4
 0.0000000001     1     1     4     5
 -0.0891584511     1     1     4    10
 -0.0722614228     1     1     5     3
 0.0000000001     1     1     5     4
 0.6539713528     1     1     5     5
 0.1878843386     1     1     5    11
 0.6216975916     1     1     6     6
 -0.0000000001     1     1     6     8
 0.2162833744     1     1     6    12
 0.0036829254     1     1     6    13
 0.6216975916     1     1     7     7
 -0.0000000001     1     1     7     9
 -0.0036829254     1     1     7    12
 0.2162833744     1     1     7    13
 -0.0000000001     1     1     8     6
 0.6072248019     1     1     8     8
 -0.0000000001     1     1     8    12
 -0.0000000001     1     1     9     7
 0.6072248019     1     1     9     9
 -0.0000000001     1     1     9    13
 0.0068158158     1     1    10     2
 -0.0000000001     1     1    10     3
 -0.0891584511     1     1    10     4
 0.5456651886     1     1    10    10
 -0.0541397021     1     1    11     3
 0.1878843386     1     1    11     5
 0.5001313453     1     1    11    11
 0.2162833744     1     1    12     6
 -0.0036829254     1     1    12     7
 -0.0000000001     1     1    12     8
 0.5813113403     1     1    12    12
 0.0036829254     1     1    13     6
 0.2162833744     1     1    13     7
 -0.0000000001     1     1    13     9
 0.5813113403     1     1    13    13
 -0.4030604058     1     2     2     1
 -0.0050431798     1     2     2     3
 0.0114381587     1     2     2     5
 0.0094146811     1     2     2    11
 -0.1950828812     1     2     3     4
 0.1614903928     1     2     3    10
 -0.0043969724     1     2     4     1
 -0.1951953629     1     2     4     3
 -0.2243465163     1     2     4     5
 -0.0613605680     1     2     4    11
 -0.2245994758     1     2     5     4
 -0.1314628744     1     2     5    10
 0.2193184182     1     2     6     8
 0.1198967151     1     2     6     9
 -0.1198967151     1     2     7     8
 0.2193184182     1     2     7     9
 0.2190752924     1     2     8     6
 -0.1197638034     1     2     8     7
 0.1531334969     1     2     8    12
 -0.0803591704     1     2     8    13
 0.1197638034     1     2     9     6
 0.2190752924     1     2     9     7
 0.0803591704     1     2     9    12
 0.1531334969     1     2     9    13
 -0.0068158158     1     2    10     1
 0.1613177789     1     2    10     3
 -0.1310794962     1     2    10     5
 -0.0156597694     1     2    10    11
 -0.0615748208     1     2    11     4
 -0.0159841411     1     2    11    10
 0.1534092320     1     2    12     8
 0.0805038666     1     2    12     9
 -0.0805038666     1     2    13     8
 0.1534092320     1     2    13     9
 0.0050431798     1     3     2     2
 0.0001124817     1     3     2     4
 0.0001726139     1     3     2    10
 -0.7131526770     1     3     3     1
 0.0155900091     1     3     3     5
 0.0153560127     1     3     3    11
 -0.0000000001     1     3     4     1
 0.1951953629     1     3     4     2
 -0.0062438529     1     3     4     4
 -0.0059512240     1     3     4    10
 0.0722614228     1     3     5     1
 -0.0230420532     1     3     5     5
 -0.0174790670     1     3     5    11
 -0.0162227821     1     3     6     6
 -0.0221221168     1     3     6    12
 -0.0003767008     1     3     6    13
 -0.0162227821     1     3     7     7
 0.0003767008     1     3     7    12
 -0.0221221168     1     3     7    13
 -0.0158118352     1     3     8     8
 -0.0158118352     1     3     9     9
 0.0000000001     1     3    10     1
 -0.1613177789     1     3    10     2
 -0.0085178357     1     3    10     4
 -0.0036125441     1     3    10    10
 0.0541397021     1     3    11     1
 -0.0126826632     1     3    11     5
 -0.0112231012     1     3    11    11
 -0.0133612764     1     3    12     6
 0.0002275191     1     3    12     7
 -0.0167737724     1     3    12    12
 -0.0002275191     1     3    13     6
 -0.0133612764     1     3    13     7
 -0.0167737724     1     3    13    13
 -0.0043969724     1     4     2     1
 -0.0001124817     1     4     2     3
 0.0002529595     1     4     2     5
 0.0002142528     1     4     2    11
 -0.0000000001     1     4     3     1
 0.1950828812     1     4     3     2
 0.0025666117     1     4     3    10
 -0.6240381620     1     4     4     1
 0.0062438529     1     4     4     3
 -0.0029602909     1     4     4     5
 -0.0066349626     1     4     4    11
 -0.0000000001     1     4     5     1
 0.2245994758     1     4     5     2
 -0.0152765042     1     4     5    10
 0.0129100843     1     4     6     8
 0.0070576686     1     4     6     9
 -0.0070576686     1     4     7     8
 0.0129100843     1     4     7     9
 0.0147271432     1     4     8     6
 -0.0080510161     1     4     8     7
 0.0199456921     1     4     8    12
 -0.0104668103     1     4     8    13
 0.0080510161     1     4     9     6
 0.0147271432     1     4     9     7
 0.0104668103     1     4     9    12
 0.0199456921     1     4     9    13
 0.0891584511     1     4    10     1
 0.0085178357     1     4    10     3
 -0.0107338274     1     4    10     5
 -0.0121160106     1     4    10    11
 0.0615748208     1     4    11     2
 -0.0098174052     1     4    11    10
 0.0123987850     1     4    12     8
 0.0065064541     1     4    12     9
 -0.0065064541     1     4    13     8
 0.0123987850     1     4    13     9
 -0.0114381587     1     5     2     2
 -0.0002529595     1     5     2     4
 -0.0003833782     1     5     2    10
 0.0722614228     1     5     3     1
 -0.0155900091     1     5     3     3
 -0.0047964038     1     5     3    11
 -0.0000000001     1     5     4     1
 0.2243465163     1     5     4     2
 0.0029602909     1     5     4     4
 -0.0045426768     1     5     4    10
 -0.6539713528     1     5     5     1
 0.0230420532     1     5     5     3
 -0.0070917912     1     5     5    11
 -0.0113849729     1     5     6     6
 -0.0087865022     1     5     6    12
 -0.0001496187     1     5     6    13
 -0.0113849729     1     5     7     7
 0.0001496187     1     5     7    12
 -0.0087865022     1     5     7    13
 -0.0090208515     1     5     8     8
 -0.0090208515     1     5     9     9
 0.1310794962     1     5    10     2
 0.0107338274     1     5    10     4
 -0.0121977304     1     5    10    10
 -0.1878843386     1     5    11     1
 0.0126826632     1     5    11     3
 -0.0017819498     1     5    11    11
 -0.0061059276     1     5    12     6
 0.0001039733     1     5    12     7
 -0.0088370498     1     5    12    12
 -0.0001039733     1     5    13     6
 -0.0061059276     1     5    13     7
 -0.0088370498     1     5    13    13
 0.0002431258     1     6     2     8
 0.0001329117     1     6     2     9
 -0.0087608404     1     6     3    12
 -0.0001491817     1     6     3    13
 -0.0018170589     1     6     4     8
 -0.0009933475     1     6     4     9
 -0.0026805746     1     6     5    12
 -0.0000456454     1     6     5    13
 -0.6216975916     1     6     6     1
 0.0162227821     1     6     6     3
 0.0113849729     1     6     6     5
 0.0085015076     1     6     6    11
 0.0000000001     1     6     8     1
 -0.2190752924     1     6     8     2
 -0.0147271432     1     6     8     4
 0.0111407397     1     6     8    10
 -0.1197638034     1     6     9     2
 -0.0080510161     1     6     9     4
 0.0060904055     1     6     9    10
 0.0002291057     1     6    10     8
 0.0001252473     1     6    10     9
 -0.0032509308     1     6    11    12
 -0.0000553577     1     6    11    13
 -0.2162833744     1     6    12     1
 0.0133612764     1     6    12     3
 0.0061059276     1     6    12     5
 0.0029030327     1     6    12    11
 -0.0036829254     1     6    13     1
 0.0002275191     1     6    13     3
 0.0001039733     1     6    13     5
 0.0000494335     1     6    13    11
 -0.0001329117     1     7     2     8
 0.0002431258     1     7     2     9
 0.0001491817     1     7     3    12
 -0.0087608404     1     7     3    13
 0.0009933475     1     7     4     8
 -0.0018170589     1     7     4     9
 0.0000456454     1     7     5    12
 -0.0026805746     1     7     5    13
 -0.6216975916     1     7     7     1
 0.0162227821     1     7     7     3
 0.0113849729     1     7     7     5
 0.0085015076     1     7     7    11
 0.1197638034     1     7     8     2
 0.0080510161     1     7     8     4
 -0.0060904055     1     7     8    10
 0.0000000001     1     7     9     1
 -0.2190752924     1     7     9     2
 -0.0147271432     1     7     9     4
 0.0111407397     1     7     9    10
 -0.0001252473     1     7    10     8
 0.0002291057     1     7    10     9
 0.0000553577     1     7    11    12
 -0.0032509308     1     7    11    13
 0.0036829254     1     7    12     1
 -0.0002275191     1     7    12     3
 -0.0001039733     1     7    12     5
 -0.0000494335     1     7    12    11
 -0.2162833744     1     7    13     1
 0.0133612764     1     7    13     3
 0.0061059276     1     7    13     5
 0.0029030327     1     7    13    11
 -0.0002431258     1     8     2     6
 0.0001329117     1     8     2     7
 -0.0002757351     1     8     2    12
 0.0001446962     1     8     2    13
 0.0018170589     1     8     4     6
 -0.0009933475     1     8     4     7
 0.0075469071     1     8     4    12
 -0.0039603562     1     8     4    13
 0.0000000001     1     8     6     1
 -0.2193184182     1     8     6     2
 -0.0129100843     1     8     6     4
 0.0109116340     1     8     6    10
 0.1198967151     1     8     7     2
 0.0070576686     1     8     7     4
 -0.0059651582     1     8     7    10
 -0.6072248019     1     8     8     1
 0.0158118352     1     8     8     3
 0.0090208515     1     8     8     5
 0.0036076493     1     8     8    11
 -0.0002291057     1     8    10     6
 0.0001252473     1     8    10     7
 -0.0026453656     1     8    10    12
 0.0013881965     1     8    10    13
 0.0000000001     1     8    12     1
 -0.1534092320     1     8    12     2
 -0.0123987850     1     8    12     4
 0.0091051156     1     8    12    10
 0.0805038666     1     8    13     2
 0.0065064541     1     8    13     4
 -0.0047780502     1     8    13    10
 -0.0001329117     1     9     2     6
 -0.0002431258     1     9     2     7
 -0.0001446962     1     9     2    12
 -0.0002757351     1     9     2    13
 0.0009933475     1     9     4     6
 0.0018170589     1     9     4     7
 0.0039603562     1     9     4    12
 0.0075469071     1     9     4    13
 -0.1198967151     1     9     6     2
 -0.0070576686     1     9     6     4
 0.0059651582     1     9     6    10
 0.0000000001     1     9     7     1
 -0.2193184182     1     9     7     2
 -0.0129100843     1     9     7     4
 0.0109116340     1     9     7    10
 -0.6072248019     1     9     9     1
 0.0158118352     1     9     9     3
 0.0090208515     1     9     9     5
 0.0036076493     1     9     9    11
 -0.0001252473     1     9    10     6
 -0.0002291057     1     9    10     7
 -0.0013881965     1     9    10    12
 -0.0026453656     1     9    10    13
 -0.0805038666     1     9    12     2
 -0.0065064541     1     9    12     4
 0.0047780502     1     9    12    10
 0.0000000001     1     9    13     1
 -0.1534092320     1     9    13     2
 -0.0123987850     1     9    13     4
 0.0091051156     1     9    13    10
 -0.0068158158     1    10     2     1
 -0.0001726139     1    10     2     3
 0.0003833782     1    10     2     5
 0.0003243717     1    10     2    11
 0.0000000001     1    10     3     1
 -0.1614903928     1    10     3     2
 -0.0025666117     1    10     3     4
 0.0891584511     1    10     4     1
 0.0059512240     1    10     4     3
 0.0045426768     1    10     4     5
 -0.0022986054     1    10     4    11
 0.1314628744     1    10     5     2
 0.0152765042     1    10     5     4
 -0.0109116340     1    10     6     8
 -0.0059651582     1    10     6     9
 0.0059651582     1    10     7     8
 -0.0109116340     1    10     7     9
 -0.0111407397     1    10     8     6
 0.0060904055     1    10     8     7
 -0.0117504812     1    10     8    12
 0.0061662467     1    10     8    13
 -0.0060904055     1    10     9     6
 -0.0111407397     1    10     9     7
 -0.0061662467     1    10     9    12
 -0.0117504812     1    10     9    13
 -0.5456651886     1    10    10     1
 0.0036125441     1    10    10     3
 0.0121977304     1    10    10     5
 0.0057274568     1    10    10    11
 0.0159841411     1    10    11     2
 0.0098174052     1    10    11     4
 -0.0091051156     1    10    12     8
 -0.0047780502     1    10    12     9
 0.0047780502     1    10    13     8
 -0.0091051156     1    10    13     9
 -0.0094146811     1    11     2     2
 -0.0002142528     1    11     2     4
 -0.0003243717     1    11     2    10
 0.0541397021     1    11     3     1
 -0.0153560127     1    11     3     3
 0.0047964038     1    11     3     5
 0.0613605680     1    11     4     2
 0.0066349626     1    11     4     4
 0.0022986054     1    11     4    10
 -0.1878843386     1    11     5     1
 0.0174790670     1    11     5     3
 0.0070917912     1    11     5     5
 -0.0085015076     1    11     6     6
 -0.0061539635     1    11     6    12
 -0.0001047912     1    11     6    13
 -0.0085015076     1    11     7     7
 0.0001047912     1    11     7    12
 -0.0061539635     1    11     7    13
 -0.0036076493     1    11     8     8
 -0.0036076493     1    11     9     9
 0.0156597694     1    11    10     2
 0.0121160106     1    11    10     4
 -0.0057274568     1    11    10    10
 -0.5001313453     1    11    11     1
 0.0112231012     1    11    11     3
 0.0017819498     1    11    11     5
 -0.0029030327     1    11    12     6
 0.0000494335     1    11    12     7
 -0.0044482961     1    11    12    12
 -0.0000494335     1    11    13     6
 -0.0029030327     1    11    13     7
 -0.0044482961     1    11    13    13
 0.0002757351     1    12     2     8
 0.0001446962     1    12     2     9
 0.0087608404     1    12     3     6
 -0.0001491817     1    12     3     7
 -0.0075469071     1    12     4     8
 -0.0039603562     1    12     4     9
 0.0026805746     1    12     5     6
 -0.0000456454     1    12     5     7
 -0.2162833744     1    12     6     1
 0.0221221168     1    12     6     3
 0.0087865022     1    12     6     5
 0.0061539635     1    12     6    11
 0.0036829254     1    12     7     1
 -0.0003767008     1    12     7     3
 -0.0001496187     1    12     7     5
 -0.0001047912     1    12     7    11
 0.0000000001     1    12     8     1
 -0.1531334969     1    12     8     2
 -0.0199456921     1    12     8     4
 0.0117504812     1    12     8    10
 -0.0803591704     1    12     9     2
 -0.0104668103     1    12     9     4
 0.0061662467     1    12     9    10
 0.0026453656     1    12    10     8
 0.0013881965     1    12    10     9
 0.0032509308     1    12    11     6
 -0.0000553577     1    12    11     7
 -0.5813113403     1    12    12     1
 0.0167737724     1    12    12     3
 0.0088370498     1    12    12     5
 0.0044482961     1    12    12    11
 -0.0001446962     1    13     2     8
 0.0002757351     1    13     2     9
 0.0001491817     1    13     3     6
 0.0087608404     1    13     3     7
 0.0039603562     1    13     4     8
 -0.0075469071     1    13     4     9
 0.0000456454     1    13     5     6
 0.0026805746     1    13     5     7
 -0.0036829254     1    13     6     1
 0.0003767008     1    13     6     3
 0.0001496187     1    13     6     5
 0.0001047912     1    13     6    11
 -0.2162833744     1    13     7     1
 0.0221221168     1    13     7     3
 0.0087865022     1    13     7     5
 0.0061539635     1    13     7    11
 0.0803591704     1    13     8     2
 0.0104668103     1    13     8     4
 -0.0061662467     1    13     8    10
 0.0000000001     1    13     9     1
 -0.1531334969     1    13     9     2
 -0.0199456921     1    13     9     4
 0.0117504812     1    13     9    10
 -0.0013881965     1    13    10     8
 0.0026453656     1    13    10     9
 0.0000553577     1    13    11     6
 0.0032509308     1    13    11     7
 -0.5813113403     1    13    13     1
 0.0167737724     1    13    13     3
 0.0088370498     1    13    13     5
 0.0044482961     1    13    13    11
 -0.4030604058     2     1     1     2
 -0.0043969724     2     1     1     4
 -0.0068158158     2     1     1    10
 -0.0050431798     2     1     3     2
 -0.1951953629     2     1     3     4
 0.1613177789     2     1     3    10
 -0.1950828812     2     1     4     3
 -0.2245994758     2     1     4     5
 -0.0615748208     2     1     4    11
 0.0114381587     2     1     5     2
 -0.2243465163     2     1     5     4
 -0.1310794962     2     1     5    10
 0.2190752924     2     1     6     8
 0.1197638034     2     1     6     9
 -0.1197638034     2     1     7     8
 0.2190752924     2     1     7     9
 0.2193184182     2     1     8     6
 -0.1198967151     2     1     8     7
 0.1534092320     2     1     8    12
 -0.0805038666     2     1     8    13
 0.1198967151     2     1     9     6
 0.2193184182     2     1     9     7
 0.0805038666     2     1     9    12
 0.1534092320     2     1     9    13
 0.1614903928     2     1    10     3
 -0.1314628744     2     1    10     5
 -0.0159841411     2     1    10    11
 0.0094146811     2     1    11     2
 -0.0613605680     2     1    11     4
 -0.0156597694     2     1    11    10
 0.1531334969     2     1    12     8
 0.0803591704     2     1    12     9
 -0.0803591704     2     1    13     8
 0.1531334969     2     1    13     9
 0.4030604058     2     2     1     1
 0.0050431798     2     2     1     3
 -0.0114381587     2     2     1     5
 -0.0094146811     2     2     1    11
 0.0050431798     2     2     3     1
 0.7132627038     2     2     3     3
 -0.0000000001     2     2     3     4
 -0.0725367808     2     2     3     5
 0.0000000001     2     2     3    10
 -0.0543802782     2     2     3    11
 -0.0000000001     2     2     4     3
 0.6239521886     2     2     4     4
 -0.0000000001     2     2     4     5
 -0.0893004006     2     2     4    10
 -0.0114381587     2     2     5     1
 -0.0725367808     2     2     5     3
 -0.0000000001     2     2     5     4
 0.6546342430     2     2     5     5
 0.1884417215     2     2     5    11
 0.6219979584     2     2     6     6
 0.0000000001     2     2     6     8
 0.2166284685     2     2     6    12
 0.0036888018     2     2     6    13
 0.6219979584     2     2     7     7
 0.0000000001     2     2     7     9
 -0.0036888018     2     2     7    12
 0.2166284685     2     2     7    13
 0.0000000001     2     2     8     6
 0.6069779710     2     2     8     8
 0.0000000001     2     2     8    12
 0.0000000001     2     2     9     7
 0.6069779710     2     2     9     9
 0.0000000001     2     2     9    13
 0.0000000001     2     2    10     3
 -0.0893004006     2     2    10     4
 0.5454381835     2     2    10    10
 -0.0094146811     2     2    11     1
 -0.0543802782     2     2    11     3
 0.1884417215     2     2    11     5
 0.5006054227     2     2    11    11
 0.2166284685     2     2    12     6
 -0.0036888018     2     2    12     7
 0.0000000001     2     2    12     8
 0.5817006930     2     2    12    12
 0.0036888018     2     2    13     6
 0.2166284685     2     2    13     7
 0.0000000001     2     2    13     9
 0.5817006930     2     2    13    13
 -0.0050431798     2     3     1     2
 -0.0001124817     2     3     1     4
 -0.0001726139     2     3     1    10
 -0.7132627038     2     3     3     2
 -0.0071811676     2     3     3     4
 -0.0113909326     2     3     3    10
 0.1950828812     2     3     4     1
 0.0000000001     2     3     4     2
 0.0130540264     2     3     4     5
 0.0071612730     2     3     4    11
 0.0725367808     2     3     5     2
 0.0169259698     2     3     5     4
 0.0128845241     2     3     5    10
 -0.0188907721     2     3     6     8
 -0.0103271834     2     3     6     9
 0.0103271834     2     3     7     8
 -0.0188907721     2     3     7     9
 -0.0153158118     2     3     8     6
 0.0083728287     2     3     8     7
 -0.0175870234     2     3     8    12
 0.0092290624     2     3     8    13
 -0.0083728287     2     3     9     6
 -0.0153158118     2     3     9     7
 -0.0092290624     2     3     9    12
 -0.0175870234     2     3     9    13
 -0.1614903928     2     3    10     1
 -0.0000000001     2     3    10     2
 0.0116323889     2     3    10     5
 0.0072678565     2     3    10    11
 0.0543802782     2     3    11     2
 0.0089152755     2     3    11     4
 0.0049918278     2     3    11    10
 -0.0137915379     2     3    12     8
 -0.0072373227     2     3    12     9
 0.0072373227     2     3    13     8
 -0.0137915379     2     3    13     9
 0.0043969724     2     4     1     1
 0.0001124817     2     4     1     3
 -0.0002529595     2     4     1     5
 -0.0002142528     2     4     1    11
 0.1951953629     2     4     3     1
 0.0000000001     2     4     3     2
 0.0071811676     2     4     3     3
 -0.0038719434     2     4     3     5
 -0.0017540025     2     4     3    11
 -0.6239521886     2     4     4     2
 0.0035536565     2     4     4    10
 0.2243465163     2     4     5     1
 0.0000000001     2     4     5     2
 -0.0169259698     2     4     5     3
 0.0199668896     2     4     5     5
 0.0200835477     2     4     5    11
 0.0178864720     2     4     6     6
 0.0202858709     2     4     6    12
 0.0003454327     2     4     6    13
 0.0178864720     2     4     7     7
 -0.0003454327     2     4     7    12
 0.0202858709     2     4     7    13
 0.0200294523     2     4     8     8
 0.0200294523     2     4     9     9
 0.0893004006     2     4    10     2
 0.0122050827     2     4    10    10
 0.0613605680     2     4    11     1
 -0.0089152755     2     4    11     3
 0.0102489149     2     4    11     5
 0.0102059049     2     4    11    11
 0.0145360641     2     4    12     6
 -0.0002475237     2     4    12     7
 0.0191003088     2     4    12    12
 0.0002475237     2     4    13     6
 0.0145360641     2     4    13     7
 0.0191003088     2     4    13    13
 0.0114381587     2     5     1     2
 0.0002529595     2     5     1     4
 0.0003833782     2     5     1    10
 0.0725367808     2     5     3     2
 0.0038719434     2     5     3     4
 0.0012521352     2     5     3    10
 0.2245994758     2     5     4     1
 0.0000000001     2     5     4     2
 -0.0130540264     2     5     4     3
 0.0098346328     2     5     4    11
 -0.6546342430     2     5     5     2
 -0.0199668896     2     5     5     4
 0.0060817523     2     5     5    10
 -0.0009755849     2     5     6     8
 -0.0005333314     2     5     6     9
 0.0005333314     2     5     7     8
 -0.0009755849     2     5     7     9
 -0.0023656899     2     5     8     6
 0.0012932723     2     5     8     7
 -0.0068949214     2     5     8    12
 0.0036182166     2     5     8    13
 -0.0012932723     2     5     9     6
 -0.0023656899     2     5     9     7
 -0.0036182166     2     5     9    12
 -0.0068949214     2     5     9    13
 0.1314628744     2     5    10     1
 -0.0116323889     2     5    10     3
 0.0072358653     2     5    10    11
 -0.1884417215     2     5    11     2
 -0.0102489149     2     5    11     4
 0.0082955536     2     5    11    10
 -0.0026036182     2     5    12     8
 -0.0013662889     2     5    12     9
 0.0013662889     2     5    13     8
 -0.0026036182     2     5    13     9
 -0.0002431258     2     6     1     8
 -0.0001329117     2     6     1     9
 -0.0035749603     2     6     3     8
 -0.0019543547     2     6     3     9
 0.0057498068     2     6     4    12
 0.0000979090     2     6     4    13
 0.0013901050     2     6     5     8
 0.0007599409     2     6     5     9
 -0.6219979584     2     6     6     2
 -0.0178864720     2     6     6     4
 0.0052936499     2     6     6    10
 -0.2193184182     2     6     8     1
 -0.0000000001     2     6     8     2
 0.0153158118     2     6     8     3
 0.0023656899     2     6     8     5
 -0.0010547516     2     6     8    11
 -0.1198967151     2     6     9     1
 0.0083728287     2     6     9     3
 0.0012932723     2     6     9     5
 -0.0005766103     2     6     9    11
 -0.0026792229     2     6    10    12
 -0.0000456224     2     6    10    13
 -0.0009197203     2     6    11     8
 -0.0005027915     2     6    11     9
 -0.2166284685     2     6    12     2
 -0.0145360641     2     6    12     4
 0.0077083849     2     6    12    10
 -0.0036888018     2     6    13     2
 -0.0002475237     2     6    13     4
 0.0001312603     2     6    13    10
 0.0001329117     2     7     1     8
 -0.0002431258     2     7     1     9
 0.0019543547     2     7     3     8
 -0.0035749603     2     7     3     9
 -0.0000979090     2     7     4    12
 0.0057498068     2     7     4    13
 -0.0007599409     2     7     5     8
 0.0013901050     2     7     5     9
 -0.6219979584     2     7     7     2
 -0.0178864720     2     7     7     4
 0.0052936499     2     7     7    10
 0.1198967151     2     7     8     1
 -0.0083728287     2     7     8     3
 -0.0012932723     2     7     8     5
 0.0005766103     2     7     8    11
 -0.2193184182     2     7     9     1
 -0.0000000001     2     7     9     2
 0.0153158118     2     7     9     3
 0.0023656899     2     7     9     5
 -0.0010547516     2     7     9    11
 0.0000456224     2     7    10    12
 -0.0026792229     2     7    10    13
 0.0005027915     2     7    11     8
 -0.0009197203     2     7    11     9
 0.0036888018     2     7    12     2
 0.0002475237     2     7    12     4
 -0.0001312603     2     7    12    10
 -0.2166284685     2     7    13     2
 -0.0145360641     2     7    13     4
 0.0077083849     2     7    13    10
 0.0002431258     2     8     1     6
 -0.0001329117     2     8     1     7
 0.0002757351     2     8     1    12
 -0.0001446962     2     8     1    13
 0.0035749603     2     8     3     6
 -0.0019543547     2     8     3     7
 -0.0037954855     2     8     3    12
 0.0019917397     2     8     3    13
 -0.0013901050     2     8     5     6
 0.0007599409     2     8     5     7
 -0.0042913032     2     8     5    12
 0.0022519277     2     8     5    13
 -0.2190752924     2     8     6     1
 -0.0000000001     2     8     6     2
 0.0188907721     2     8     6     3
 0.0009755849     2     8     6     5
 -0.0001350313     2     8     6    11
 0.1197638034     2     8     7     1
 -0.0103271834     2     8     7     3
 -0.0005333314     2     8     7     5
 0.0000738188     2     8     7    11
 -0.6069779710     2     8     8     2
 -0.0200294523     2     8     8     4
 0.0096731661     2     8     8    10
 0.0009197203     2     8    11     6
 -0.0005027915     2     8    11     7
 -0.0018874585     2     8    11    12
 0.0009904730     2     8    11    13
 -0.1531334969     2     8    12     1
 -0.0000000001     2     8    12     2
 0.0137915379     2     8    12     3
 0.0026036182     2     8    12     5
 0.0000899532     2     8    12    11
 0.0803591704     2     8    13     1
 -0.0072373227     2     8    13     3
 -0.0013662889     2     8    13     5
 -0.0000472043     2     8    13    11
 0.0001329117     2     9     1     6
 0.0002431258     2     9     1     7
 0.0001446962     2     9     1    12
 0.0002757351     2     9     1    13
 0.0019543547     2     9     3     6
 0.0035749603     2     9     3     7
 -0.0019917397     2     9     3    12
 -0.0037954855     2     9     3    13
 -0.0007599409     2     9     5     6
 -0.0013901050     2     9     5     7
 -0.0022519277     2     9     5    12
 -0.0042913032     2     9     5    13
 -0.1197638034     2     9     6     1
 0.0103271834     2     9     6     3
 0.0005333314     2     9     6     5
 -0.0000738188     2     9     6    11
 -0.2190752924     2     9     7     1
 -0.0000000001     2     9     7     2
 0.0188907721     2     9     7     3
 0.0009755849     2     9     7     5
 -0.0001350313     2     9     7    11
 -0.6069779710     2     9     9     2
 -0.0200294523     2     9     9     4
 0.0096731661     2     9     9    10
 0.0005027915     2     9    11     6
 0.0009197203     2     9    11     7
 -0.0009904730     2     9    11    12
 -0.0018874585     2     9    11    13
 -0.0803591704     2     9    12     1
 0.0072373227     2     9    12     3
 0.0013662889     2     9    12     5
 0.0000472043     2     9    12    11
 -0.1531334969     2     9    13     1
 -0.0000000001     2     9    13     2
 0.0137915379     2     9    13     3
 0.0026036182     2     9    13     5
 0.0000899532     2     9    13    11
 0.0068158158     2    10     1     1
 0.0001726139     2    10     1     3
 -0.0003833782     2    10     1     5
 -0.0003243717     2    10     1    11
 -0.1613177789     2    10     3     1
 -0.0000000001     2    10     3     2
 0.0113909326     2    10     3     3
 -0.0012521352     2    10     3     5
 0.0022760287     2    10     3    11
 0.0893004006     2    10     4     2
 -0.0035536565     2    10     4     4
 0.1310794962     2    10     5     1
 -0.0128845241     2    10     5     3
 -0.0060817523     2    10     5     5
 -0.0010596883     2    10     5    11
 -0.0052936499     2    10     6     6
 -0.0103876078     2    10     6    12
 -0.0001768827     2    10     6    13
 -0.0052936499     2    10     7     7
 0.0001768827     2    10     7    12