&FCI NORB= 10,NELEC= 10,MS2=0,
 ORBSYM=1,1,1,1,1,1,1,1,1,1
 ISYM=1,
&END
 0.2704915535     1     1     2     2
 0.2704915375     1     1     3     3
 0.0000000203     1     1     3     8
 0.2144080029     1     1     4     4
 0.2144080326     1     1     5     5
 0.2520790066     1     1     6     6
 0.2520789991     1     1     7     7
 0.0000000203     1     1     8     3
 0.1880226701     1     1     8     8
 0.1767168655     1     1     9     9
 0.1767168527     1     1    10    10
 -0.2704915535     1     2     2     1
 -0.0000000122     1     2     2     6
 0.0023353201     1     2     2     7
 -0.0023353188     1     2     3     6
 -0.0000000122     1     2     3     7
 0.0000000003     1     2     4     9
 0.0001170945     1     2     4    10
 0.0001170944     1     2     5     9
 -0.0000000003     1     2     5    10
 -0.0000000002     1     2     6     3
 0.0005732568     1     2     6     8
 -0.0000000015     1     2     7     8
 -0.0012379999     1     2     8     6
 0.0000000032     1     2     8     7
 0.0000000071     1     2     9     4
 0.0032337769     1     2     9     5
 0.0032337829     1     2    10     4
 -0.0000000071     1     2    10     5
 -0.0023353185     1     3     2     6
 -0.0000000122     1     3     2     7
 -0.2704915375     1     3     3     1
 0.0000000122     1     3     3     6
 -0.0023353270     1     3     3     7
 0.0001170952     1     3     4     9
 -0.0000000003     1     3     4    10
 -0.0000000003     1     3     5     9
 -0.0001170944     1     3     5    10
 0.0000000002     1     3     6     2
 -0.0000000015     1     3     6     8
 -0.0005732579     1     3     7     8
 -0.0000000203     1     3     8     1
 0.0000000032     1     3     8     6
 0.0012379995     1     3     8     7
 0.0032337794     1     3     9     4
 -0.0000000071     1     3     9     5
 -0.0000000071     1     3    10     4
 -0.0032337841     1     3    10     5
 -0.0000000068     1     4     2     9
 -0.0030997650     1     4     2    10
 -0.0030997607     1     4     3     9
 0.0000000068     1     4     3    10
 -0.2144080029     1     4     4     1
 -0.0000000008     1     4     4     6
 0.0263937921     1     4     4     7
 -0.0263937953     1     4     5     6
 -0.0000000008     1     4     5     7
 -0.0000000142     1     4     6     5
 -0.0376715363     1     4     8     9
 -0.0000000153     1     4     8    10
 -0.0000000071     1     4     9     2
 -0.0032337794     1     4     9     3
 -0.0373981969     1     4     9     8
 -0.0032337829     1     4    10     2
 0.0000000071     1     4    10     3
 -0.0000000152     1     4    10     8
 -0.0030997590     1     5     2     9
 0.0000000068     1     5     2    10
 0.0000000068     1     5     3     9
 0.0030997662     1     5     3    10
 -0.0263937817     1     5     4     6
 -0.0000000008     1     5     4     7
 -0.2144080326     1     5     5     1
 0.0000000008     1     5     5     6
 -0.0263937785     1     5     5     7
 0.0000000142     1     5     6     4
 0.0000000153     1     5     8     9
 -0.0376714940     1     5     8    10
 -0.0032337769     1     5     9     2
 0.0000000071     1     5     9     3
 0.0000000152     1     5     9     8
 0.0000000071     1     5    10     2
 0.0032337841     1     5    10     3
 -0.0373981545     1     5    10     8
 0.0000000122     1     6     2     2
 0.0023353185     1     6     2     3
 0.0021131649     1     6     2     8
 0.0023353188     1     6     3     2
 -0.0000000122     1     6     3     3
 -0.0000000055     1     6     3     8
 0.0000000008     1     6     4     4
 0.0263937817     1     6     4     5
 0.0263937953     1     6     5     4
 -0.0000000008     1     6     5     5
 -0.2520790066     1     6     6     1
 0.0000000001     1     6     6     7
 0.0012379999     1     6     8     2
 -0.0000000032     1     6     8     3
 0.0000000064     1     6     9     9
 -0.0082237077     1     6     9    10
 -0.0082237078     1     6    10     9
 -0.0000000064     1     6    10    10
 -0.0023353201     1     7     2     2
 0.0000000122     1     7     2     3
 -0.0000000055     1     7     2     8
 0.0000000122     1     7     3     2
 0.0023353270     1     7     3     3
 -0.0021131658     1     7     3     8
 -0.0263937921     1     7     4     4
 0.0000000008     1     7     4     5
 0.0000000008     1     7     5     4
 0.0263937785     1     7     5     5
 -0.0000000001     1     7     6     6
 -0.2520789991     1     7     7     1
 -0.0000000032     1     7     8     2
 -0.0012379995     1     7     8     3
 0.0000000099     1     7     8     8
 0.0082237198     1     7     9     9
 0.0000000064     1     7     9    10
 0.0000000064     1     7    10     9
 -0.0082237071     1     7    10    10
 -0.0021131649     1     8     2     6
 0.0000000055     1     8     2     7
 -0.0000000203     1     8     3     1
 0.0000000055     1     8     3     6
 0.0021131658     1     8     3     7
 -0.0002810771     1     8     4     9
 -0.0000000001     1     8     4    10
 0.0000000001     1     8     5     9
 -0.0002810773     1     8     5    10
 -0.0005732568     1     8     6     2
 0.0000000015     1     8     6     3
 0.0000000015     1     8     7     2
 0.0005732579     1     8     7     3
 -0.1880226701     1     8     8     1
 -0.0000000099     1     8     8     7
 0.0373981969     1     8     9     4
 -0.0000000152     1     8     9     5
 0.0000000152     1     8    10     4
 0.0373981545     1     8    10     5
 0.0000000068     1     9     2     4
 0.0030997590     1     9     2     5
 0.0030997607     1     9     3     4
 -0.0000000068     1     9     3     5
 -0.0000000003     1     9     4     2
 -0.0001170952     1     9     4     3
 0.0002810771     1     9     4     8
 -0.0001170944     1     9     5     2
 0.0000000003     1     9     5     3
 -0.0000000001     1     9     5     8
 0.0376715363     1     9     8     4
 -0.0000000153     1     9     8     5
 -0.1767168655     1     9     9     1
 -0.0000000064     1     9     9     6
 -0.0082237198     1     9     9     7
 0.0082237078     1     9    10     6
 -0.0000000064     1     9    10     7
 0.0030997650     1    10     2     4
 -0.0000000068     1    10     2     5
 -0.0000000068     1    10     3     4
 -0.0030997662     1    10     3     5
 -0.0001170945     1    10     4     2
 0.0000000003     1    10     4     3
 0.0000000001     1    10     4     8
 0.0000000003     1    10     5     2
 0.0001170944     1    10     5     3
 0.0002810773     1    10     5     8
 0.0000000153     1    10     8     4
 0.0376714940     1    10     8     5
 0.0082237077     1    10     9     6
 -0.0000000064     1    10     9     7
 -0.1767168527     1    10    10     1
 0.0000000064     1    10    10     6
 0.0082237071     1    10    10     7
 -0.2704915535     2     1     1     2
 -0.0000000002     2     1     3     6
 0.0000000071     2     1     4     9
 0.0032337829     2     1     4    10
 0.0032337769     2     1     5     9
 -0.0000000071     2     1     5    10
 -0.0000000122     2     1     6     2
 -0.0023353188     2     1     6     3
 -0.0012379999     2     1     6     8
 0.0023353201     2     1     7     2
 -0.0000000122     2     1     7     3
 0.0000000032     2     1     7     8
 0.0005732568     2     1     8     6
 -0.0000000015     2     1     8     7
 0.0000000003     2     1     9     4
 0.0001170944     2     1     9     5
 0.0001170945     2     1    10     4
 -0.0000000003     2     1    10     5
 0.2704915535     2     2     1     1
 0.0000000122     2     2     1     6
 -0.0023353201     2     2     1     7
 0.2585036021     2     2     3     3
 0.0000000199     2     2     3     8
 0.2666020462     2     2     4     4
 -0.0000000080     2     2     4     5
 -0.0000000080     2     2     5     4
 0.2696841330     2     2     5     5
 0.0000000122     2     2     6     1
 0.2607869914     2     2     6     6
 -0.0000000103     2     2     6     7
 -0.0023353201     2     2     7     1
 -0.0000000103     2     2     7     6
 0.2567701042     2     2     7     7
 0.0000000199     2     2     8     3
 0.1895576758     2     2     8     8
 0.1752092902     2     2     9     9
 -0.0000000296     2     2     9    10
 -0.0000000296     2     2    10     9
 0.1850602050     2     2    10    10
 0.0023353185     2     3     1     6
 0.0000000122     2     3     1     7
 -0.2585036021     2     3     3     2
 0.0000000080     2     3     4     4
 -0.0019225685     2     3     4     5
 -0.0011595204     2     3     5     4
 -0.0000000080     2     3     5     5
 0.0023353188     2     3     6     1
 -0.0000000103     2     3     6     6
 -0.0011675032     2     3     6     7
 0.0000000122     2     3     7     1
 -0.0028493698     2     3     7     6
 0.0000000103     2     3     7     7
 -0.0000000199     2     3     8     2
 0.0000000296     2     3     9     9
 -0.0052306089     2     3     9    10
 -0.0046203067     2     3    10     9
 -0.0000000296     2     3    10    10
 0.0000000068     2     4     1     9
 0.0030997650     2     4     1    10
 -0.0000763562     2     4     3     5
 -0.2666020462     2     4     4     2
 -0.0000000080     2     4     4     3
 0.0000000023     2     4     4     8
 0.0000000080     2     4     5     2
 0.0011595204     2     4     5     3
 0.0008892546     2     4     5     8
 -0.0012238552     2     4     6     9
 0.0000000048     2     4     6    10
 0.0000000102     2     4     7     9
 -0.0005878418     2     4     7    10
 0.0000000006     2     4     8     5
 -0.0000000003     2     4     9     1
 -0.0001094681     2     4     9     6
 0.0000000006     2     4     9     7
 -0.0001170945     2     4    10     1
 -0.0000000003     2     4    10     6
 -0.0001938125     2     4    10     7
 0.0030997590     2     5     1     9
 -0.0000000068     2     5     1    10
 0.0000763562     2     5     3     4
 0.0000000080     2     5     4     2
 0.0019225685     2     5     4     3
 0.0008892541     2     5     4     8
 -0.2696841330     2     5     5     2
 0.0000000080     2     5     5     3
 -0.0000000023     2     5     5     8
 0.0000000031     2     5     6     9
 -0.0038571646     2     5     6    10
 -0.0020454603     2     5     7     9
 0.0000000023     2     5     7    10
 -0.0000000006     2     5     8     4
 -0.0001170944     2     5     9     1
 0.0000000006     2     5     9     6
 0.0000869268     2     5     9     7
 0.0000000003     2     5    10     1
 -0.0002163551     2     5    10     6
 0.0000000003     2     5    10     7
 -0.0000000122     2     6     1     2
 -0.0023353185     2     6     1     3
 -0.0021131649     2     6     1     8
 0.0000000002     2     6     3     1
 0.0007824296     2     6     3     7
 -0.0008305607     2     6     4     9
 0.0000000051     2     6     4    10
 0.0000000015     2     6     5     9
 -0.0030163603     2     6     5    10
 -0.2607869914     2     6     6     2
 0.0000000103     2     6     6     3
 -0.0000000008     2     6     6     8
 0.0000000103     2     6     7     2
 0.0028493698     2     6     7     3
 0.0003280119     2     6     7     8
 -0.0005732568     2     6     8     1
 0.0000000014     2     6     8     7
 0.0001094681     2     6     9     4
 -0.0000000006     2     6     9     5
 0.0000000003     2     6    10     4
 0.0002163551     2     6    10     5
 0.0023353201     2     7     1     2
 -0.0000000122     2     7     1     3
 0.0000000055     2     7     1     8
 -0.0007824296     2     7     3     6
 0.0000000079     2     7     4     9
 -0.0001069996     2     7     4    10
 -0.0020787947     2     7     5     9
 0.0000000013     2     7     5    10
 0.0000000103     2     7     6     2
 0.0011675032     2     7     6     3
 0.0003280105     2     7     6     8
 -0.2567701042     2     7     7     2
 -0.0000000103     2     7     7     3
 0.0000000008     2     7     7     8
 0.0000000015     2     7     8     1
 -0.0000000014     2     7     8     6
 -0.0000000006     2     7     9     4
 -0.0000869268     2     7     9     5
 0.0001938125     2     7    10     4
 -0.0000000003     2     7    10     5
 0.0021131649     2     8     1     6
 -0.0000000055     2     8     1     7
 -0.0000000199     2     8     3     2
 -0.0000000023     2     8     4     4
 -0.0008892541     2     8     4     5
 -0.0008892546     2     8     5     4
 0.0000000023     2     8     5     5
 0.0012379999     2     8     6     1
 0.0000000008     2     8     6     6
 -0.0003280105     2     8     6     7
 -0.0000000032     2     8     7     1
 -0.0003280119     2     8     7     6
 -0.0000000008     2     8     7     7
 -0.1895576758     2     8     8     2
 -0.0000000018     2     8     9     9
 -0.0009691320     2     8     9    10
 -0.0009691304     2     8    10     9
 0.0000000018     2     8    10    10
 -0.0000000068     2     9     1     4
 -0.0030997590     2     9     1     5
 -0.0007009249     2     9     3    10
 -0.0000000071     2     9     4     1
 0.0008305607     2     9     4     6
 -0.0000000079     2     9     4     7
 -0.0032337769     2     9     5     1
 -0.0000000015     2     9     5     6
 0.0020787947     2     9     5     7
 0.0012238552     2     9     6     4
 -0.0000000031     2     9     6     5
 -0.0000000102     2     9     7     4
 0.0020454603     2     9     7     5
 -0.0000000017     2     9     8    10
 -0.1752092902     2     9     9     2
 -0.0000000296     2     9     9     3
 0.0000000018     2     9     9     8
 0.0000000296     2     9    10     2
 0.0046203067     2     9    10     3
 0.0009691304     2     9    10     8
 -0.0030997650     2    10     1     4
 0.0000000068     2    10     1     5
 0.0007009249     2    10     3     9
 -0.0032337829     2    10     4     1
 -0.0000000051     2    10     4     6
 0.0001069996     2    10     4     7
 0.0000000071     2    10     5     1
 0.0030163603     2    10     5     6
 -0.0000000013     2    10     5     7
 -0.0000000048     2    10     6     4
 0.0038571646     2    10     6     5
 0.0005878418     2    10     7     4
 -0.0000000023     2    10     7     5
 0.0000000017     2    10     8     9
 0.0000000296     2    10     9     2
 0.0052306089     2    10     9     3
 0.0009691320     2    10     9     8
 -0.1850602050     2    10    10     2
 0.0000000296     2    10    10     3
 -0.0000000018     2    10    10     8
 -0.2704915375     3     1     1     3
 -0.0000000203     3     1     1     8
 0.0000000002     3     1     2     6
 0.0032337794     3     1     4     9
 -0.0000000071     3     1     4    10
 -0.0000000071     3     1     5     9
 -0.0032337841     3     1     5    10
 -0.0023353185     3     1     6     2
 0.0000000122     3     1     6     3
 0.0000000032     3     1     6     8
 -0.0000000122     3     1     7     2
 -0.0023353270     3     1     7     3
 0.0012379995     3     1     7     8
 -0.0000000015     3     1     8     6
 -0.0005732579     3     1     8     7
 0.0001170952     3     1     9     4
 -0.0000000003     3     1     9     5
 -0.0000000003     3     1    10     4
 -0.0001170944     3     1    10     5
 0.0023353188     3     2     1     6
 0.0000000122     3     2     1     7
 -0.2585036021     3     2     2     3
 -0.0000000199     3     2     2     8
 0.0000000080     3     2     4     4
 -0.0011595204     3     2     4     5
 -0.0019225685     3     2     5     4
 -0.0000000080     3     2     5     5
 0.0023353185     3     2     6     1
 -0.0000000103     3     2     6     6
 -0.0028493698     3     2     6     7
 0.0000000122     3     2     7     1
 -0.0011675032     3     2     7     6
 0.0000000103     3     2     7     7
 0.0000000296     3     2     9     9
 -0.0046203067     3     2     9    10
 -0.0052306089     3     2    10     9
 -0.0000000296     3     2    10    10
 0.2704915375     3     3     1     1
 -0.0000000122     3     3     1     6
 0.0023353270     3     3     1     7
 0.2585036021     3     3     2     2
 0.2696841252     3     3     4     4
 0.0000000080     3     3     4     5
 0.0000000080     3     3     5     4
 0.2666020202     3     3     5     5
 -0.0000000122     3     3     6     1
 0.2567700980     3     3     6     6
 0.0000000103     3     3     6     7
 0.0023353270     3     3     7     1
 0.0000000103     3     3     7     6
 0.2607869709     3     3     7     7
 0.1895576876     3     3     8     8
 0.1850602250     3     3     9     9
 0.0000000296     3     3     9    10
 0.0000000296     3     3    10     9
 0.1752092788     3     3    10    10
 0.0030997607     3     4     1     9
 -0.0000000068     3     4     1    10
 0.0000763562     3     4     2     5
 -0.0000000080     3     4     4     2
 -0.2696841252     3     4     4     3
 0.0008892336     3     4     4     8
 0.0019225685     3     4     5     2
 -0.0000000080     3     4     5     3
 -0.0000000023     3     4     5     8
 0.0000000023     3     4     6     9
 0.0020454661     3     4     6    10
 0.0038571608     3     4     7     9
 0.0000000031     3     4     7    10
 -0.0001170952     3     4     9     1
 0.0000000003     3     4     9     6
 0.0002163566     3     4     9     7
 0.0000000003     3     4    10     1
 -0.0000869262     3     4    10     6
 0.0000000006     3     4    10     7
 -0.0000000068     3     5     1     9
 -0.0030997662     3     5     1    10
 -0.0000763562     3     5     2     4
 0.0011595204     3     5     4     2
 -0.0000000080     3     5     4     3
 -0.0000000023     3     5     4     8
 0.0000000080     3     5     5     2
 -0.2666020202     3     5     5     3
 -0.0008892748     3     5     5     8
 0.0005878434     3     5     6     9
 0.0000000102     3     5     6    10
 0.0000000048     3     5     7     9
 0.0012238597     3     5     7    10
 0.0000000003     3     5     9     1
 0.0001938117     3     5     9     6
 -0.0000000003     3     5     9     7
 0.0001170944     3     5    10     1
 0.0000000006     3     5    10     6
 0.0001094683     3     5    10     7
 -0.0023353188     3     6     1     2
 0.0000000122     3     6     1     3
 0.0000000055     3     6     1     8
 -0.0000000002     3     6     2     1
 -0.0007824296     3     6     2     7
 0.0000000013     3     6     4     9
 0.0020787998     3     6     4    10
 0.0001070016     3     6     5     9
 0.0000000079     3     6     5    10
 0.0000000103     3     6     6     2
 -0.2567700980     3     6     6     3
 -0.0003280297     3     6     6     8
 0.0011675032     3     6     7     2
 -0.0000000103     3     6     7     3
 -0.0000000008     3     6     7     8
 0.0000000015     3     6     8     1
 -0.0000000003     3     6     9     4
 -0.0001938117     3     6     9     5
 0.0000869262     3     6    10     4
 -0.0000000006     3     6    10     5
 -0.0000000122     3     7     1     2
 -0.0023353270     3     7     1     3
 0.0021131658     3     7     1     8
 0.0007824296     3     7     2     6
 0.0030163546     3     7     4     9
 0.0000000015     3     7     4    10
 0.0000000051     3     7     5     9
 0.0008305651     3     7     5    10
 0.0028493698     3     7     6     2
 -0.0000000103     3     7     6     3
 -0.0000000008     3     7     6     8
 -0.0000000103     3     7     7     2
 -0.2607869709     3     7     7     3
 0.0003279935     3     7     7     8
 0.0005732579     3     7     8     1
 -0.0002163566     3     7     9     4
 0.0000000003     3     7     9     5
 -0.0000000006     3     7    10     4
 -0.0001094683     3     7    10     5
 0.0000000203     3     8     1     1
 -0.0000000055     3     8     1     6
 -0.0021131658     3     8     1     7
 0.0000000199     3     8     2     2
 -0.0008892336     3     8     4     4
 0.0000000023     3     8     4     5
 0.0000000023     3     8     5     4
 0.0008892748     3     8     5     5
 -0.0000000032     3     8     6     1
 0.0003280297     3     8     6     6
 0.0000000008     3     8     6     7
 -0.0012379995     3     8     7     1
 0.0000000008     3     8     7     6
 -0.0003279935     3     8     7     7
 -0.1895576876     3     8     8     3
 -0.0009691216     3     8     9     9
 0.0000000018     3     8     9    10
 0.0000000018     3     8    10     9
 0.0009691433     3     8    10    10
 -0.0030997607     3     9     1     4
 0.0000000068     3     9     1     5
 0.0007009249     3     9     2    10
 -0.0032337794     3     9     4     1
 -0.0000000013     3     9     4     6
 -0.0030163546     3     9     4     7
 0.0000000071     3     9     5     1
 -0.0001070016     3     9     5     6
 -0.0000000051     3     9     5     7
 -0.0000000023     3     9     6     4
 -0.0005878434     3     9     6     5
 -0.0038571608     3     9     7     4
 -0.0000000048     3     9     7     5
 -0.0000000296     3     9     9     2
 -0.1850602250     3     9     9     3
 0.0009691216     3     9     9     8
 0.0052306089     3     9    10     2
 -0.0000000296     3     9    10     3
 -0.0000000018     3     9    10     8
 0.0000000068     3    10     1     4
 0.0030997662     3    10     1     5
 -0.0007009249     3    10     2     9
 0.0000000071     3    10     4     1
 -0.0020787998     3    10     4     6
 -0.0000000015     3    10     4     7
 0.0032337841     3    10     5     1
 -0.0000000079     3    10     5     6
 -0.0008305651     3    10     5     7
 -0.0020454661     3    10     6     4
 -0.0000000102     3    10     6     5
 -0.0000000031     3    10     7     4
 -0.0012238597     3    10     7     5
 0.0046203067     3    10     9     2
 -0.0000000296     3    10     9     3
 -0.0000000018     3    10     9     8
 0.0000000296     3    10    10     2
 -0.1752092788     3    10    10     3
 -0.0009691433     3    10    10     8
 -0.2144080029     4     1     1     4
 -0.0000000071     4     1     2     9
 -0.0032337829     4     1     2    10
 -0.0032337794     4     1     3     9
 0.0000000071     4     1     3    10
 -0.0000000142     4     1     5     6
 -0.0000000008     4     1     6     4
 -0.0263937953     4     1     6     5
 0.0263937921     4     1     7     4
 -0.0000000008     4     1     7     5
 -0.0373981969     4     1     8     9
 -0.0000000152     4     1     8    10
 -0.0000000068     4     1     9     2
 -0.0030997607     4     1     9     3
 -0.0376715363     4     1     9     8
 -0.0030997650     4     1    10     2
 0.0000000068     4     1    10     3
 -0.0000000153     4     1    10     8
 -0.0000000003     4     2     1     9
 -0.0001170945     4     2     1    10
 -0.2666020462     4     2     2     4
 0.0000000080     4     2     2     5
 -0.0000000080     4     2     3     4
 0.0011595204     4     2     3     5
 -0.0000763562     4     2     5     3
 0.0000000006     4     2     5     8
 -0.0001094681     4     2     6     9
 -0.0000000003     4     2     6    10
 0.0000000006     4     2     7     9
 -0.0001938125     4     2     7    10
 0.0000000023     4     2     8     4
 0.0008892546     4     2     8     5
 0.0000000068     4     2     9     1
 -0.0012238552     4     2     9     6
 0.0000000102     4     2     9     7
 0.0030997650     4     2    10     1
 0.0000000048     4     2    10     6
 -0.0005878418     4     2    10     7
 -0.0001170952     4     3     1     9
 0.0000000003     4     3     1    10
 -0.0000000080     4     3     2     4
 0.0019225685     4     3     2     5
 -0.2696841252     4     3     3     4
 -0.0000000080     4     3     3     5
 0.0000763562     4     3     5     2
 0.0000000003     4     3     6     9
 -0.0000869262     4     3     6    10
 0.0002163566     4     3     7     9
 0.0000000006     4     3     7    10
 0.0008892336     4     3     8     4
 -0.0000000023     4     3     8     5
 0.0030997607     4     3     9     1
 0.0000000023     4     3     9     6
 0.0038571608     4     3     9     7
 -0.0000000068     4     3    10     1
 0.0020454661     4     3    10     6
 0.0000000031     4     3    10     7
 0.2144080029     4     4     1     1
 0.0000000008     4     4     1     6
 -0.0263937921     4     4     1     7
 0.2666020462     4     4     2     2
 0.0000000080     4     4     2     3
 -0.0000000023     4     4     2     8
 0.0000000080     4     4     3     2
 0.2696841252     4     4     3     3
 -0.0008892336     4     4     3     8
 0.2505075910     4     4     5     5
 0.0000000008     4     4     6     1
 0.2308893497     4     4     6     6
 -0.0000000001     4     4     6     7
 -0.0263937921     4     4     7     1
 -0.0000000001     4     4     7     6
 0.2405420861     4     4     7     7
 -0.0000000023     4     4     8     2
 -0.0008892336     4     4     8     3
 0.1878672414     4     4     8     8
 0.1843792827     4     4     9     9
 0.0000000061     4     4     9    10
 0.0000000061     4     4    10     9
 0.1694542491     4     4    10    10
 0.0263937817     4     5     1     6
 0.0000000008     4     5     1     7
 -0.0000000080     4     5     2     2
 -0.0019225685     4     5     2     3
 -0.0008892541     4     5     2     8
 -0.0011595204     4     5     3     2
 0.0000000080     4     5     3     3
 0.0000000023     4     5     3     8
 -0.2505075910     4     5     5     4
 0.0263937953     4     5     6     1
 -0.0000000001     4     5     6     6
 0.0273019643     4     5     6     7
 0.0000000008     4     5     7     1
 -0.0176492184     4     5     7     6
 0.0000000001     4     5     7     7
 -0.0008892546     4     5     8     2
 0.0000000023     4     5     8     3
 -0.0000000061     4     5     9     9
 0.0076160014     4     5     9    10
 0.0073090178     4     5    10     9
 0.0000000061     4     5    10    10
 -0.0000000008     4     6     1     4
 -0.0263937817     4     6     1     5
 0.0008305607     4     6     2     9
 -0.0000000051     4     6     2    10
 -0.0000000013     4     6     3     9
 -0.0020787998     4     6     3    10
 0.0000000142     4     6     5     1
 0.0447928367     4     6     5     7
 -0.2308893497     4     6     6     4
 0.0000000001     4     6     6     5
 0.0000000001     4     6     7     4
 0.0176492184     4     6     7     5
 -0.0000000092     4     6     8     9
 0.0247020152     4     6     8    10
 0.0012238552     4     6     9     2
 -0.0000000023     4     6     9     3
 -0.0000000092     4     6     9     8
 -0.0000000048     4     6    10     2
 -0.0020454661     4     6    10     3
 0.0244767117     4     6    10     8
 0.0263937921     4     7     1     4
 -0.0000000008     4     7     1     5
 -0.0000000079     4     7     2     9
 0.0001069996     4     7     2    10
 -0.0030163546     4     7     3     9
 -0.0000000015     4     7     3    10
 -0.0447928367     4     7     5     6
 0.0000000001     4     7     6     4
 -0.0273019643     4     7     6     5
 -0.2405420861     4     7     7     4
 -0.0000000001     4     7     7     5
 -0.0247020384     4     7     8     9
 -0.0000000092     4     7     8    10
 -0.0000000102     4     7     9     2
 -0.0038571608     4     7     9     3
 -0.0244767346     4     7     9     8
 0.0005878418     4     7    10     2
 -0.0000000031     4     7    10     3
 -0.0000000092     4     7    10     8
 0.0002810771     4     8     1     9
 0.0000000001     4     8     1    10
 0.0000000023     4     8     2     4
 0.0008892541     4     8     2     5
 0.0008892336     4     8     3     4
 -0.0000000023     4     8     3     5
 -0.0000000006     4     8     5     2
 0.0001135593     4     8     6    10
 -0.0001135596     4     8     7     9
 -0.1878672414     4     8     8     4
 0.0376715363     4     8     9     1
 0.0000000092     4     8     9     6
 0.0244767346     4     8     9     7
 0.0000000153     4     8    10     1
 -0.0244767117     4     8    10     6
 0.0000000092     4     8    10     7
 0.0000000003     4     9     1     2
 0.0001170952     4     9     1     3
 -0.0002810771     4     9     1     8
 0.0000000071     4     9     2     1
 -0.0008305607     4     9     2     6
 0.0000000079     4     9     2     7
 0.0032337794     4     9     3     1
 0.0000000013     4     9     3     6
 0.0030163546     4     9     3     7
 0.0002600002     4     9     5    10
 0.0001094681     4     9     6     2
 -0.0000000003     4     9     6     3
 -0.0000000006     4     9     7     2
 -0.0002163566     4     9     7     3
 0.0001135596     4     9     7     8
 0.0373981969     4     9     8     1
 0.0000000092     4     9     8     6
 0.0247020384     4     9     8     7
 -0.1843792827     4     9     9     4
 0.0000000061     4     9     9     5
 -0.0000000061     4     9    10     4
 -0.0073090178     4     9    10     5
 0.0001170945     4    10     1     2
 -0.0000000003     4    10     1     3
 -0.0000000001     4    10     1     8
 0.0032337829     4    10     2     1
 0.0000000051     4    10     2     6
 -0.0001069996     4    10     2     7
 -0.0000000071     4    10     3     1
 0.0020787998     4    10     3     6
 0.0000000015     4    10     3     7
 -0.0002600002     4    10     5     9
 0.0000000003     4    10     6     2
 0.0000869262     4    10     6     3
 -0.0001135593     4    10     6     8
 0.0001938125     4    10     7     2
 -0.0000000006     4    10     7     3
 0.0000000152     4    10     8     1
 -0.0247020152     4    10     8     6
 0.0000000092     4    10     8     7
 -0.0000000061     4    10     9     4
 -0.0076160014     4    10     9     5
 -0.1694542491     4    10    10     4
 -0.0000000061     4    10    10     5
 -0.2144080326     5     1     1     5
 -0.0032337769     5     1     2     9
 0.0000000071     5     1     2    10
 0.0000000071     5     1     3     9
 0.0032337841     5     1     3    10
 0.0000000142     5     1     4     6
 -0.0263937817     5     1     6     4
 0.0000000008     5     1     6     5
 -0.0000000008     5     1     7     4
 -0.0263937785     5     1     7     5
 0.0000000152     5     1     8     9
 -0.0373981545     5     1     8    10
 -0.0030997590     5     1     9     2
 0.0000000068     5     1     9     3
 0.0000000153     5     1     9     8
 0.0000000068     5     1    10     2
 0.0030997662     5     1    10     3