&FCI NORB= 19,NELEC= 14,MS2=0,
 ORBSYM=1,1,1,1,1,1,1,1,1,1,1,1,1,1,1,1,1,1,1
 ISYM=1,
&END
 0.4397335072     1     1     2     2
 0.0059100078     1     1     2     4
 0.0044243063     1     1     2    10
 -0.0161057425     1     1     2    15
 0.0025761824     1     1     2    18
 0.7545605259     1     1     3     3
 0.0860824740     1     1     3     5
 -0.0843684336     1     1     3    11
 0.1259427881     1     1     3    14
 0.0059100078     1     1     4     2
 0.6300177215     1     1     4     4
 -0.1068785806     1     1     4    10
 -0.1002524503     1     1     4    15
 -0.1273776032     1     1     4    18
 0.0860824740     1     1     5     3
 0.6654610758     1     1     5     5
 -0.1662079020     1     1     5    11
 -0.1268464841     1     1     5    14
 0.6448464952     1     1     6     6
 -0.1246673730     1     1     6    12
 0.1803975824     1     1     6    13
 -0.0006546712     1     1     6    19
 0.6448464952     1     1     7     7
 0.1803975824     1     1     7    12
 0.1246673730     1     1     7    13
 0.0032060134     1     1     7    19
 0.6082534664     1     1     8     8
 -0.2169078356     1     1     8    16
 -0.1067676484     1     1     8    17
 0.6082534664     1     1     9     9
 0.1067676484     1     1     9    16
 -0.2169078356     1     1     9    17
 0.0044243063     1     1    10     2
 -0.1068785806     1     1    10     4
 0.4609389780     1     1    10    10
 -0.1723053003     1     1    10    15
 0.1451054367     1     1    10    18
 -0.0843684336     1     1    11     3
 -0.1662079020     1     1    11     5
 0.4939820324     1     1    11    11
 -0.0115996020     1     1    11    14
 -0.1246673730     1     1    12     6
 0.1803975824     1     1    12     7
 0.5766353043     1     1    12    12
 0.0288713416     1     1    12    19
 0.1803975824     1     1    13     6
 0.1246673730     1     1    13     7
 0.5766353043     1     1    13    13
 0.0123182463     1     1    13    19
 0.1259427881     1     1    14     3
 -0.1268464841     1     1    14     5
 -0.0115996020     1     1    14    11
 0.5389698519     1     1    14    14
 -0.0161057425     1     1    15     2
 -0.1002524503     1     1    15     4
 -0.1723053003     1     1    15    10
 0.7226044173     1     1    15    15
 -0.0708028186     1     1    15    18
 -0.2169078356     1     1    16     8
 0.1067676484     1     1    16     9
 0.5919027494     1     1    16    16
 -0.1067676484     1     1    17     8
 -0.2169078356     1     1    17     9
 0.5919027494     1     1    17    17
 0.0025761824     1     1    18     2
 -0.1273776032     1     1    18     4
 0.1451054367     1     1    18    10
 -0.0708028186     1     1    18    15
 0.5315547852     1     1    18    18
 -0.0006546712     1     1    19     6
 0.0032060134     1     1    19     7
 0.0288713416     1     1    19    12
 0.0123182463     1     1    19    13
 0.6190086765     1     1    19    19
 -0.4397335072     1     2     2     1
 -0.0072236999     1     2     2     3
 -0.0137787221     1     2     2     5
 0.0101319860     1     2     2    11
 0.0043329859     1     2     2    14
 -0.1677960762     1     2     3     4
 0.1396408592     1     2     3    10
 -0.1153450116     1     2     3    15
 0.1405237094     1     2     3    18
 -0.0059100078     1     2     4     1
 -0.1679928897     1     2     4     3
 0.2331397204     1     2     4     5
 -0.0365921438     1     2     4    11
 -0.1564449900     1     2     4    14
 0.2335140378     1     2     5     4
 0.0628231295     1     2     5    10
 -0.2410398725     1     2     5    15
 0.0037092082     1     2     5    18
 0.0407153774     1     2     6     8
 0.2339709995     1     2     6     9
 0.0502075085     1     2     6    16
 -0.1712976749     1     2     6    17
 0.2339709995     1     2     7     8
 -0.0407153774     1     2     7     9
 -0.1712976749     1     2     7    16
 -0.0502075085     1     2     7    17
 0.0406533554     1     2     8     6
 0.2336145897     1     2     8     7
 0.1077997415     1     2     8    12
 0.1060043780     1     2     8    13
 0.1145945319     1     2     8    19
 0.2336145897     1     2     9     6
 -0.0406533554     1     2     9     7
 -0.1060043780     1     2     9    12
 0.1077997415     1     2     9    13
 -0.0449388302     1     2     9    19
 -0.0044243063     1     2    10     1
 0.1394961611     1     2    10     3
 0.0625527898     1     2    10     5
 0.0219949897     1     2    10    11
 0.0709478272     1     2    10    14
 -0.0368777291     1     2    11     4
 0.0217893721     1     2    11    10
 0.1573610374     1     2    11    15
 -0.0388468647     1     2    11    18
 0.1080760102     1     2    12     8
 -0.1062760455     1     2    12     9
 -0.2281179492     1     2    12    16
 0.0754926272     1     2    12    17
 0.1062760455     1     2    13     8
 0.1080760102     1     2    13     9
 -0.0754926272     1     2    13    16
 -0.2281179492     1     2    13    17
 -0.1565547602     1     2    14     4
 0.0708689883     1     2    14    10
 0.1392005909     1     2    14    15
 0.1443219431     1     2    14    18
 0.0161057425     1     2    15     1
 -0.1148126450     1     2    15     3
 -0.2400362824     1     2    15     5
 0.1565959982     1     2    15    11
 0.1389074899     1     2    15    14
 0.0500828797     1     2    16     6
 -0.1708724671     1     2    16     7
 -0.2276671433     1     2    16    12
 -0.0753434389     1     2    16    13
 -0.0684580216     1     2    16    19
 -0.1708724671     1     2    17     6
 -0.0500828797     1     2    17     7
 0.0753434389     1     2    17    12
 -0.2276671433     1     2    17    13
 -0.0057422306     1     2    17    19
 -0.0025761824     1     2    18     1
 0.1404394663     1     2    18     3
 0.0035534490     1     2    18     5
 -0.0387283779     1     2    18    11
 0.1443667490     1     2    18    14
 0.1146195321     1     2    19     8
 -0.0449486341     1     2    19     9
 -0.0684905625     1     2    19    16
 -0.0057449602     1     2    19    17
 0.0072236999     1     3     2     2
 0.0001968135     1     3     2     4
 0.0001446981     1     3     2    10
 -0.0005323666     1     3     2    15
 0.0000842431     1     3     2    18
 -0.7545605259     1     3     3     1
 -0.0187122370     1     3     3     5
 0.0154189049     1     3     3    11
 0.0105896392     1     3     3    14
 0.1679928897     1     3     4     2
 -0.0078497638     1     3     4     4
 -0.0032440350     1     3     4    10
 0.0138391870     1     3     4    15
 0.0001837928     1     3     4    18
 -0.0860824740     1     3     5     1
 -0.0238154520     1     3     5     5
 0.0140322462     1     3     5    11
 0.0149224195     1     3     5    14
 -0.0164501750     1     3     6     6
 0.0122573723     1     3     6    12
 -0.0177368006     1     3     6    13
 0.0023438099     1     3     6    19
 -0.0164501750     1     3     7     7
 -0.0177368006     1     3     7    12
 -0.0122573723     1     3     7    13
 -0.0114779537     1     3     7    19
 -0.0149245181     1     3     8     8
 0.0166424618     1     3     8    16
 0.0081918503     1     3     8    17
 -0.0149245181     1     3     9     9
 -0.0081918503     1     3     9    16
 0.0166424618     1     3     9    17
 -0.1394961611     1     3    10     2
 -0.0056447586     1     3    10     4
 -0.0003965446     1     3    10    10
 0.0051029461     1     3    10    15
 0.0016801625     1     3    10    18
 0.0843684336     1     3    11     1
 0.0117974797     1     3    11     5
 -0.0082285815     1     3    11    11
 -0.0103291073     1     3    11    14
 0.0074050473     1     3    12     6
 -0.0107153347     1     3    12     7
 -0.0154979435     1     3    12    12
 -0.0070587762     1     3    12    19
 -0.0107153347     1     3    13     6
 -0.0074050473     1     3    13     7
 -0.0154979435     1     3    13    13
 -0.0030116974     1     3    13    19
 -0.1259427881     1     3    14     1
 0.0052491225     1     3    14     5
 -0.0036451247     1     3    14    11
 -0.0032827001     1     3    14    14
 0.1148126450     1     3    15     2
 0.0164721616     1     3    15     4
 0.0005612332     1     3    15    10
 -0.0234673533     1     3    15    15
 -0.0041789365     1     3    15    18
 0.0127146312     1     3    16     8
 -0.0062584704     1     3    16     9
 -0.0183716179     1     3    16    16
 0.0062584704     1     3    17     8
 0.0127146312     1     3    17     9
 -0.0183716179     1     3    17    17
 -0.1404394663     1     3    18     2
 -0.0026412514     1     3    18     4
 0.0005305197     1     3    18    10
 0.0024347047     1     3    18    15
 0.0015134470     1     3    18    18
 0.0008017268     1     3    19     6
 -0.0039261643     1     3    19     7
 -0.0013638997     1     3    19    12
 -0.0005819214     1     3    19    13
 -0.0010625669     1     3    19    19
 -0.0059100078     1     4     2     1
 -0.0001968135     1     4     2     3
 -0.0003743174     1     4     2     5
 0.0002855853     1     4     2    11
 0.0001097702     1     4     2    14
 0.1677960762     1     4     3     2
 0.0024007236     1     4     3    10
 -0.0026329746     1     4     3    15
 0.0028250442     1     4     3    18
 -0.6300177215     1     4     4     1
 0.0078497638     1     4     4     3
 0.0027312626     1     4     4     5
 -0.0069148427     1     4     4    11
 -0.0000834950     1     4     4    14
 -0.2335140378     1     4     5     2
 0.0099207325     1     4     5    10
 -0.0263766743     1     4     5    15
 0.0092496547     1     4     5    18
 0.0023238441     1     4     6     8
 0.0133539748     1     4     6     9
 0.0053526041     1     4     6    16
 -0.0182619824     1     4     6    17
 0.0133539748     1     4     7     8
 -0.0023238441     1     4     7     9
 -0.0182619824     1     4     7    16
 -0.0053526041     1     4     7    17
 0.0027714815     1     4     8     6
 0.0159263241     1     4     8     7
 0.0150388434     1     4     8    12
 0.0147883772     1     4     8    13
 0.0040135295     1     4     8    19
 0.0159263241     1     4     9     6
 -0.0027714815     1     4     9     7
 -0.0147883772     1     4     9    12
 0.0150388434     1     4     9    13
 -0.0015739261     1     4     9    19
 0.1068785806     1     4    10     1
 0.0056447586     1     4    10     3
 0.0064968533     1     4    10     5
 -0.0076825849     1     4    10    11
 -0.0019746592     1     4    10    14
 0.0368777291     1     4    11     2
 -0.0065973220     1     4    11    10
 0.0093104443     1     4    11    15
 -0.0049609604     1     4    11    18
 0.0088910660     1     4    12     8
 -0.0087429888     1     4    12     9
 -0.0141269736     1     4    12    16
 0.0046751356     1     4    12    17
 0.0087429888     1     4    13     8
 0.0088910660     1     4    13     9
 -0.0046751356     1     4    13    16
 -0.0141269736     1     4    13    17
 0.1565547602     1     4    14     2
 -0.0046428948     1     4    14    10
 0.0085115894     1     4    14    15
 -0.0041872198     1     4    14    18
 0.1002524503     1     4    15     1
 -0.0164721616     1     4    15     3
 -0.0153340569     1     4    15     5
 0.0151567917     1     4    15    11
 -0.0004970701     1     4    15    14
 0.0039238924     1     4    16     6
 -0.0133875124     1     4    16     7
 -0.0152036591     1     4    16    12
 -0.0050314505     1     4    16    13
 -0.0043078812     1     4    16    19
 -0.0133875124     1     4    17     6
 -0.0039238924     1     4    17     7
 0.0050314505     1     4    17    12
 -0.0152036591     1     4    17    13
 -0.0003613433     1     4    17    19
 0.1273776032     1     4    18     1
 0.0026412514     1     4    18     3
 0.0035883339     1     4    18     5
 -0.0026926668     1     4    18    11
 -0.0010831297     1     4    18    14
 0.0051771945     1     4    19     8
 -0.0020302633     1     4    19     9
 -0.0093070369     1     4    19    16
 -0.0007806704     1     4    19    17
 0.0137787221     1     5     2     2
 0.0003743174     1     5     2     4
 0.0002703397     1     5     2    10
 -0.0010035901     1     5     2    15
 0.0001557592     1     5     2    18
 -0.0860824740     1     5     3     1
 0.0187122370     1     5     3     3
 0.0022347665     1     5     3    11
 0.0096732970     1     5     3    14
 -0.2331397204     1     5     4     2
 -0.0027312626     1     5     4     4
 0.0034238792     1     5     4    10
 -0.0110426174     1     5     4    15
 0.0056613208     1     5     4    18
 -0.6654610758     1     5     5     1
 0.0238154520     1     5     5     3
 -0.0093886088     1     5     5    11
 0.0122589052     1     5     5    14
 0.0129583854     1     5     6     6
 -0.0057507764     1     5     6    12
 0.0083215532     1     5     6    13
 0.0014658289     1     5     6    19
 0.0129583854     1     5     7     7
 0.0083215532     1     5     7    12
 0.0057507764     1     5     7    13
 -0.0071783622     1     5     7    19
 0.0092827466     1     5     8     8
 -0.0104686395     1     5     8    16
 -0.0051529352     1     5     8    17
 0.0092827466     1     5     9     9
 0.0051529352     1     5     9    16
 -0.0104686395     1     5     9    17
 -0.0625527898     1     5    10     2
 -0.0064968533     1     5    10     4
 0.0058664156     1     5    10    10
 -0.0090765195     1     5    10    15
 0.0078168075     1     5    10    18
 0.1662079020     1     5    11     1
 -0.0117974797     1     5    11     3
 0.0035497219     1     5    11    11
 -0.0127372599     1     5    11    14
 -0.0037051660     1     5    12     6
 0.0053614909     1     5    12     7
 0.0086462588     1     5    12    12
 -0.0029473863     1     5    12    19
 0.0053614909     1     5    13     6
 0.0037051660     1     5    13     7
 0.0086462588     1     5    13    13
 -0.0012575318     1     5    13    19
 0.1268464841     1     5    14     1
 -0.0052491225     1     5    14     3
 0.0008321458     1     5    14    11
 -0.0007991703     1     5    14    14
 0.2400362824     1     5    15     2
 0.0153340569     1     5    15     4
 -0.0174981372     1     5    15    10
 0.0155129725     1     5    15    15
 -0.0197155567     1     5    15    18
 -0.0064339628     1     5    16     8
 0.0031669629     1     5    16     9
 0.0089205660     1     5    16    16
 -0.0031669629     1     5    17     8
 -0.0064339628     1     5    17     9
 0.0089205660     1     5    17    17
 -0.0035534490     1     5    18     2
 -0.0035883339     1     5    18     4
 0.0046158083     1     5    18    10
 -0.0033518771     1     5    18    15
 0.0066272795     1     5    18    18
 -0.0000604061     1     5    19     6
 0.0002958164     1     5    19     7
 0.0069367371     1     5    19    12
 0.0029596281     1     5    19    13
 0.0089201127     1     5    19    19
 0.0000620220     1     6     2     8
 0.0003564098     1     6     2     9
 0.0001246288     1     6     2    16
 -0.0004252078     1     6     2    17
 0.0048523250     1     6     3    12
 -0.0070214659     1     6     3    13
 0.0015420831     1     6     3    19
 -0.0004476374     1     6     4     8
 -0.0025723493     1     6     4     9
 0.0014287117     1     6     4    16
 -0.0048744700     1     6     4    17
 -0.0020456104     1     6     5    12
 0.0029600623     1     6     5    13
 0.0015262350     1     6     5    19
 -0.6448464952     1     6     6     1
 0.0164501750     1     6     6     3
 -0.0129583854     1     6     6     5
 0.0075949658     1     6     6    11
 0.0106047538     1     6     6    14
 -0.0406533554     1     6     8     2
 -0.0027714815     1     6     8     4
 0.0020185935     1     6     8    10
 -0.0014628980     1     6     8    15
 0.0017484296     1     6     8    18
 -0.2336145897     1     6     9     2
 -0.0159263241     1     6     9     4
 0.0115998516     1     6     9    10
 -0.0084065463     1     6     9    15
 0.0100473544     1     6     9    18
 0.0000907870     1     6    10     8
 0.0005217077     1     6    10     9
 -0.0004295017     1     6    10    16
 0.0014653715     1     6    10    17
 0.0024690040     1     6    11    12
 -0.0035727260     1     6    11    13
 0.0000296144     1     6    11    19
 0.1246673730     1     6    12     1
 -0.0074050473     1     6    12     3
 0.0037051660     1     6    12     5
 -0.0004773556     1     6    12    11
 -0.0090717144     1     6    12    14
 -0.1803975824     1     6    13     1
 0.0107153347     1     6    13     3
 -0.0053614909     1     6    13     5
 0.0006907483     1     6    13    11
 0.0131270542     1     6    13    14
 -0.0027198258     1     6    14    12
 0.0039356729     1     6    14    13
 -0.0005412151     1     6    14    19
 -0.0000551040     1     6    15     8
 -0.0003166553     1     6    15     9
 0.0008075131     1     6    15    16
 -0.0027550684     1     6    15    17
 -0.0500828797     1     6    16     2
 -0.0039238924     1     6    16     4
 0.0031282999     1     6    16    10
 -0.0004557980     1     6    16    15
 0.0045685274     1     6    16    18
 0.1708724671     1     6    17     2
 0.0133875124     1     6    17     4
 -0.0106731148     1     6    17    10
 0.0015550886     1     6    17    15
 -0.0155868744     1     6    17    18
 -0.0001478253     1     6    18     8
 -0.0008494781     1     6    18     9
 0.0008154703     1     6    18    16
 -0.0027822168     1     6    18    17
 0.0006546712     1     6    19     1
 -0.0008017268     1     6    19     3
 0.0000604061     1     6    19     5
 0.0014481995     1     6    19    11
 -0.0005064179     1     6    19    14
 0.0003564098     1     7     2     8
 -0.0000620220     1     7     2     9
 -0.0004252078     1     7     2    16
 -0.0001246288     1     7     2    17
 -0.0070214659     1     7     3    12
 -0.0048523250     1     7     3    13
 -0.0075517894     1     7     3    19
 -0.0025723493     1     7     4     8
 0.0004476374     1     7     4     9
 -0.0048744700     1     7     4    16
 -0.0014287117     1     7     4    17
 0.0029600623     1     7     5    12
 0.0020456104     1     7     5    13
 -0.0074741786     1     7     5    19
 -0.6448464952     1     7     7     1
 0.0164501750     1     7     7     3
 -0.0129583854     1     7     7     5
 0.0075949658     1     7     7    11
 0.0106047538     1     7     7    14
 -0.2336145897     1     7     8     2
 -0.0159263241     1     7     8     4
 0.0115998516     1     7     8    10
 -0.0084065463     1     7     8    15
 0.0100473544     1     7     8    18
 0.0406533554     1     7     9     2
 0.0027714815     1     7     9     4
 -0.0020185935     1     7     9    10
 0.0014628980     1     7     9    15
 -0.0017484296     1     7     9    18
 0.0005217077     1     7    10     8
 -0.0000907870     1     7    10     9
 0.0014653715     1     7    10    16
 0.0004295017     1     7    10    17
 -0.0035727260     1     7    11    12
 -0.0024690040     1     7    11    13
 -0.0001450254     1     7    11    19
 -0.1803975824     1     7    12     1
 0.0107153347     1     7    12     3
 -0.0053614909     1     7    12     5
 0.0006907483     1     7    12    11
 0.0131270542     1     7    12    14
 -0.1246673730     1     7    13     1
 0.0074050473     1     7    13     3
 -0.0037051660     1     7    13     5
 0.0004773556     1     7    13    11
 0.0090717144     1     7    13    14
 0.0039356729     1     7    14    12
 0.0027198258     1     7    14    13
 0.0026504037     1     7    14    19
 -0.0003166553     1     7    15     8
 0.0000551040     1     7    15     9
 -0.0027550684     1     7    15    16
 -0.0008075131     1     7    15    17
 0.1708724671     1     7    16     2
 0.0133875124     1     7    16     4
 -0.0106731148     1     7    16    10
 0.0015550886     1     7    16    15
 -0.0155868744     1     7    16    18
 0.0500828797     1     7    17     2
 0.0039238924     1     7    17     4
 -0.0031282999     1     7    17    10
 0.0004557980     1     7    17    15
 -0.0045685274     1     7    17    18
 -0.0008494781     1     7    18     8
 0.0001478253     1     7    18     9
 -0.0027822168     1     7    18    16
 -0.0008154703     1     7    18    17
 -0.0032060134     1     7    19     1
 0.0039261643     1     7    19     3
 -0.0002958164     1     7    19     5
 -0.0070920283     1     7    19    11
 0.0024799972     1     7    19    14
 -0.0000620220     1     8     2     6
 -0.0003564098     1     8     2     7
 -0.0002762687     1     8     2    12
 -0.0002716675     1     8     2    13
 -0.0000250002     1     8     2    19
 0.0039278306     1     8     3    16
 0.0019333799     1     8     3    17
 0.0004476374     1     8     4     6
 0.0025723493     1     8     4     7
 0.0061477774     1     8     4    12
 0.0060453884     1     8     4    13
 -0.0011636650     1     8     4    19
 -0.0040346767     1     8     5    16
 -0.0019859723     1     8     5    17
 -0.0407153774     1     8     6     2
 -0.0023238441     1     8     6     4
 0.0019278065     1     8     6    10
 -0.0014077940     1     8     6    15
 0.0018962549     1     8     6    18
 -0.2339709995     1     8     7     2
 -0.0133539748     1     8     7     4
 0.0110781439     1     8     7    10
 -0.0080898910     1     8     7    15
 0.0108968325     1     8     7    18
 -0.6082534664     1     8     8     1
 0.0149245181     1     8     8     3
 -0.0092827466     1     8     8     5
 0.0017957984     1     8     8    11
 0.0102572926     1     8     8    14
 -0.0000907870     1     8    10     6
 -0.0005217077     1     8    10     7
 -0.0020823527     1     8    10    12
 -0.0020476719     1     8    10    13
 -0.0027801170     1     8    10    19
 0.0005376681     1     8    11    16
 0.0002646541     1     8    11    17
 -0.1080760102     1     8    12     2
 -0.0088910660     1     8    12     4
 0.0066966712     1     8    12    10
 -0.0010476062     1     8    12    15
 0.0097780418     1     8    12    18
 -0.1062760455     1     8    13     2
 -0.0087429888     1     8    13     4
 0.0065851407     1     8    13    10
 -0.0010301587     1     8    13    15
 0.0096151922     1     8    13    18
 -0.0010717632     1     8    14    16
 -0.0005275495     1     8    14    17
 0.0000551040     1     8    15     6
 0.0003166553     1     8    15     7
 0.0017176528     1     8    15    12
 0.0016890460     1     8    15    13
 0.0051358359     1     8    15    19
 0.2169078356     1     8    16     1
 -0.0127146312     1     8    16     3
 0.0064339628     1     8    16     5
 -0.0017109758     1     8    16    11
 -0.0129977366     1     8    16    14
 0.1067676484     1     8    17     1
 -0.0062584704     1     8    17     3
 0.0031669629     1     8    17     5
 -0.0008421866     1     8    17    11
 -0.0063978222     1     8    17    14
 0.0001478253     1     8    18     6
 0.0008494781     1     8    18     7
 0.0015351674     1     8    18    12
 0.0015095998     1     8    18    13
 -0.0011571957     1     8    18    19
 -0.1146195321     1     8    19     2
 -0.0051771945     1     8    19     4
 0.0036200117     1     8    19    10
 -0.0053477755     1     8    19    15
 0.0040996137     1     8    19    18
 -0.0003564098     1     9     2     6
 0.0000620220     1     9     2     7
 0.0002716675     1     9     2    12
 -0.0002762687     1     9     2    13
 0.0000098039     1     9     2    19
 -0.0019333799     1     9     3    16
 0.0039278306     1     9     3    17
 0.0025723493     1     9     4     6
 -0.0004476374     1     9     4     7
 -0.0060453884     1     9     4    12
 0.0061477774     1     9     4    13
 0.0004563372     1     9     4    19
 0.0019859723     1     9     5    16
 -0.0040346767     1     9     5    17
 -0.2339709995     1     9     6     2
 -0.0133539748     1     9     6     4
 0.0110781439     1     9     6    10
 -0.0080898910     1     9     6    15
 0.0108968325     1     9     6    18
 0.0407153774     1     9     7     2
 0.0023238441     1     9     7     4
 -0.0019278065     1     9     7    10
 0.0014077940     1     9     7    15
 -0.0018962549     1     9     7    18
 -0.6082534664     1     9     9     1
 0.0149245181     1     9     9     3
 -0.0092827466     1     9     9     5
 0.0017957984     1     9     9    11
 0.0102572926     1     9     9    14
 -0.0005217077     1     9    10     6
 0.0000907870     1     9    10     7
 0.0020476719     1     9    10    12
 -0.0020823527     1     9    10    13
 0.0010902371     1     9    10    19
 -0.0002646541     1     9    11    16
 0.0005376681     1     9    11    17
 0.1062760455     1     9    12     2
 0.0087429888     1     9    12     4
 -0.0065851407     1     9    12    10
 0.0010301587     1     9    12    15
 -0.0096151922     1     9    12    18
 -0.1080760102     1     9    13     2
 -0.0088910660     1     9    13     4
 0.0066966712     1     9    13    10
 -0.0010476062     1     9    13    15
 0.0097780418     1     9    13    18
 0.0005275495     1     9    14    16
 -0.0010717632     1     9    14    17
 0.0003166553     1     9    15     6
 -0.0000551040     1     9    15     7
 -0.0016890460     1     9    15    12
 0.0017176528     1     9    15    13
 -0.0020140443     1     9    15    19
 -0.1067676484     1     9    16     1
 0.0062584704     1     9    16     3
 -0.0031669629     1     9    16     5
 0.0008421866     1     9    16    11
 0.0063978222     1     9    16    14
 0.2169078356     1     9    17     1
 -0.0127146312     1     9    17     3
 0.0064339628     1     9    17     5
 -0.0017109758     1     9    17    11
 -0.0129977366     1     9    17    14
 0.0008494781     1     9    18     6
 -0.0001478253     1     9    18     7
 -0.0015095998     1     9    18    12
 0.0015351674     1     9    18    13
 0.0004538002     1     9    18    19
 0.0449486341     1     9    19     2
 0.0020302633     1     9    19     4
 -0.0014196060     1     9    19    10
 0.0020971574     1     9    19    15
 -0.0016076845     1     9    19    18
 -0.0044243063     1    10     2     1
 -0.0001446981     1    10     2     3
 -0.0002703397     1    10     2     5
 0.0002056176     1    10     2    11
 0.0000788389     1    10     2    14
 -0.1396408592     1    10     3     2
 -0.0024007236     1    10     3     4
 0.0045417129     1    10     3    15
 0.0011496428     1    10     3    18
 0.1068785806     1    10     4     1
 0.0032440350     1    10     4     3
 -0.0034238792     1    10     4     5
 -0.0010852629     1    10     4    11
 0.0026682356     1    10     4    14
 -0.0628231295     1    10     5     2
 -0.0099207325     1    10     5     4
 0.0084216177     1    10     5    15
 0.0032009992     1    10     5    18
 -0.0019278065     1    10     6     8
 -0.0110781439     1    10     6     9
 -0.0035578016     1    10     6    16
 0.0121384863     1    10     6    17
 -0.0110781439     1    10     7     8
 0.0019278065     1    10     7     9
 0.0121384863     1    10     7    16
 0.0035578016     1    10     7    17
 -0.0020185935     1    10     8     6
 -0.0115998516     1    10     8     7
 -0.0087790239     1    10     8    12
 -0.0086328126     1    10     8    13
 -0.0064001287     1    10     8    19
 -0.0115998516     1    10     9     6
 0.0020185935     1    10     9     7
 0.0086328126     1    10     9    12
 -0.0087790239     1    10     9    13
 0.0025098431     1    10     9    19
 -0.4609389780     1    10    10     1
 0.0003965446     1    10    10     3
 -0.0058664156     1    10    10     5
 0.0019537960     1    10    10    11
 0.0026080586     1    10    10    14
 -0.0217893721     1    10    11     2
 0.0065973220     1    10    11     4
 -0.0127937542     1    10    11    15
 -0.0009611206     1    10    11    18
 -0.0066966712     1    10    12     8
 0.0065851407     1    10    12     9
 0.0124742295     1    10    12    16
 -0.0041281817     1    10    12    17
 -0.0065851407     1    10    13     8
 -0.0066966712     1    10    13     9
 0.0041281817     1    10    13    16
 0.0124742295     1    10    13    17
 -0.0708689883     1    10    14     2
 0.0046428948     1    10    14     4
 -0.0078246847     1    10    14    15
 -0.0015861003     1    10    14    18
 0.1723053003     1    10    15     1
 -0.0005612332     1    10    15     3
 0.0174981372     1    10    15     5
 -0.0107856719     1    10    15    11
 -0.0127660438     1    10    15    14
 -0.0031282999     1    10    16     6
 0.0106731148     1    10    16     7
 0.0135256377     1    10    16    12
 0.0044761314     1    10    16    13
 0.0059231653     1    10    16    19
 0.0106731148     1    10    17     6
 0.0031282999     1    10    17     7
 -0.0044761314     1    10    17    12
 0.0135256377     1    10    17    13
 0.0004968327     1    10    17    19
 -0.1451054367     1    10    18     1
 -0.0005305197     1    10    18     3
 -0.0046158083     1    10    18     5
 0.0035503669     1    10    18    11
 0.0015609504     1    10    18    14
 -0.0036200117     1    10    19     8
 0.0014196060     1    10    19     9
 0.0026637282     1    10    19    16
 0.0002234325     1    10    19    17
 -0.0101319860     1    11     2     2
 -0.0002855853     1    11     2     4
 -0.0002056176     1    11     2    10
 0.0007650392     1    11     2    15
 -0.0001184868     1    11     2    18
 0.0843684336     1    11     3     1
 -0.0154189049     1    11     3     3
 -0.0022347665     1    11     3     5
 -0.0066839826     1    11     3    14
 0.0365921438     1    11     4     2
 0.0069148427     1    11     4     4
 0.0010852629     1    11     4    10
 -0.0058463474     1    11     4    15
 -0.0022682936     1    11     4    18
 0.1662079020     1    11     5     1
 -0.0140322462     1    11     5     3
 0.0093886088     1    11     5     5
 -0.0135694057     1    11     5    14
 -0.0075949658     1    11     6     6
 0.0029463596     1    11     6    12
 -0.0042634743     1    11     6    13