&FCI NORB= 19,NELEC= 14,MS2=0,
 ORBSYM=1,1,1,1,1,1,1,1,1,1,1,1,1,1,1,1,1,1,1
 ISYM=1,
&END
 0.3720386796     1     1     2     2
 -0.0032562689     1     1     2     4
 0.0076165164     1     1     2    10
 -0.0104590712     1     1     2    11
 -0.0018854498     1     1     2    18
 0.6795211572     1     1     3     3
 -0.0000000006     1     1     3     4
 -0.0595307120     1     1     3     5
 -0.0000000004     1     1     3    10
 0.0000000001     1     1     3    11
 0.0126837566     1     1     3    14
 0.1545752777     1     1     3    15
 0.0000000003     1     1     3    18
 -0.0032562689     1     1     4     2
 -0.0000000006     1     1     4     3
 0.6188378697     1     1     4     4
 -0.0000000006     1     1     4     5
 0.0755229235     1     1     4    10
 0.1110963517     1     1     4    11
 -0.0000000003     1     1     4    14
 -0.0000000003     1     1     4    15
 -0.1254204196     1     1     4    18
 -0.0595307120     1     1     5     3
 -0.0000000006     1     1     5     4
 0.6420966122     1     1     5     5
 0.0000000005     1     1     5    10
 -0.0000000006     1     1     5    11
 0.2040278076     1     1     5    14
 -0.0017123918     1     1     5    15
 0.6028598488     1     1     6     6
 0.0000876543     1     1     6     7
 -0.0000000007     1     1     6     9
 -0.1237458049     1     1     6    12
 0.1729388265     1     1     6    13
 -0.0000000004     1     1     6    16
 0.0000000003     1     1     6    17
 -0.0158779123     1     1     6    19
 0.0000876543     1     1     7     6
 0.6024895603     1     1     7     7
 -0.0000000007     1     1     7     8
 0.1732742938     1     1     7    12
 0.1238063534     1     1     7    13
 0.0000000003     1     1     7    16
 0.0000000004     1     1     7    17
 -0.0035687313     1     1     7    19
 -0.0000000007     1     1     8     7
 0.6034197446     1     1     8     8
 -0.0000119993     1     1     8     9
 -0.0000000005     1     1     8    12
 -0.0000000003     1     1     8    13
 -0.1257120957     1     1     8    16
 -0.1909693978     1     1     8    17
 -0.0000000001     1     1     8    19
 -0.0000000007     1     1     9     6
 -0.0000119993     1     1     9     8
 0.6033670888     1     1     9     9
 0.0000000003     1     1     9    12
 -0.0000000005     1     1     9    13
 0.1910123874     1     1     9    16
 -0.1257805267     1     1     9    17
 -0.0000000002     1     1     9    19
 0.0076165164     1     1    10     2
 -0.0000000004     1     1    10     3
 0.0755229235     1     1    10     4
 0.0000000005     1     1    10     5
 0.6047384925     1     1    10    10
 -0.2190226877     1     1    10    11
 0.0000000001     1     1    10    14
 -0.0000000002     1     1    10    15
 -0.1253755958     1     1    10    18
 -0.0104590712     1     1    11     2
 0.0000000001     1     1    11     3
 0.1110963517     1     1    11     4
 -0.0000000006     1     1    11     5
 -0.2190226877     1     1    11    10
 0.5810077648     1     1    11    11
 -0.0000000006     1     1    11    14
 0.0121354682     1     1    11    18
 -0.1237458049     1     1    12     6
 0.1732742938     1     1    12     7
 -0.0000000005     1     1    12     8
 0.0000000003     1     1    12     9
 0.5840830417     1     1    12    12
 0.0000082482     1     1    12    13
 0.0000000006     1     1    12    16
 0.0000000003     1     1    12    17
 -0.0117143474     1     1    12    19
 0.1729388265     1     1    13     6
 0.1238063534     1     1    13     7
 -0.0000000003     1     1    13     8
 -0.0000000005     1     1    13     9
 0.0000082482     1     1    13    12
 0.5840669980     1     1    13    13
 -0.0000000003     1     1    13    16
 0.0000000006     1     1    13    17
 0.0277337644     1     1    13    19
 0.0126837566     1     1    14     3
 -0.0000000003     1     1    14     4
 0.2040278076     1     1    14     5
 0.0000000001     1     1    14    10
 -0.0000000006     1     1    14    11
 0.4993950544     1     1    14    14
 -0.0068007639     1     1    14    15
 0.0000000001     1     1    14    18
 0.1545752777     1     1    15     3
 -0.0000000003     1     1    15     4
 -0.0017123918     1     1    15     5
 -0.0000000002     1     1    15    10
 -0.0068007639     1     1    15    14
 0.5318973729     1     1    15    15
 0.0000000005     1     1    15    18
 -0.0000000004     1     1    16     6
 0.0000000003     1     1    16     7
 -0.1257120957     1     1    16     8
 0.1910123874     1     1    16     9
 0.0000000006     1     1    16    12
 -0.0000000003     1     1    16    13
 0.5628156296     1     1    16    16
 -0.0000151054     1     1    16    17
 0.0000000003     1     1    17     6
 0.0000000004     1     1    17     7
 -0.1909693978     1     1    17     8
 -0.1257805267     1     1    17     9
 0.0000000003     1     1    17    12
 0.0000000006     1     1    17    13
 -0.0000151054     1     1    17    16
 0.5628162744     1     1    17    17
 -0.0018854498     1     1    18     2
 0.0000000003     1     1    18     3
 -0.1254204196     1     1    18     4
 -0.1253755958     1     1    18    10
 0.0121354682     1     1    18    11
 0.0000000001     1     1    18    14
 0.0000000005     1     1    18    15
 0.5015000191     1     1    18    18
 -0.0158779123     1     1    19     6
 -0.0035687313     1     1    19     7
 -0.0000000001     1     1    19     8
 -0.0000000002     1     1    19     9
 -0.0117143474     1     1    19    12
 0.0277337644     1     1    19    13
 0.5742752524     1     1    19    19
 -0.3720386796     1     2     2     1
 -0.0035506687     1     2     2     3
 0.0096369302     1     2     2     5
 0.0082717388     1     2     2    14
 -0.0022130740     1     2     2    15
 0.2215140579     1     2     3     4
 0.1623171443     1     2     3    10
 -0.0399878727     1     2     3    11
 -0.1257501030     1     2     3    18
 0.0032562689     1     2     4     1
 0.2215808153     1     2     4     3
 0.2102154423     1     2     4     5
 0.1101082736     1     2     4    14
 0.1177377326     1     2     4    15
 0.2103834023     1     2     5     4
 -0.1866042884     1     2     5    10
 0.2217222932     1     2     5    11
 -0.0022965604     1     2     5    18
 -0.0021005732     1     2     6     8
 0.2594298577     1     2     6     9
 0.1439051302     1     2     6    16
 -0.0932184284     1     2     6    17
 0.2603402725     1     2     7     8
 0.0016776213     1     2     7     9
 -0.0933345295     1     2     7    16
 -0.1439768955     1     2     7    17
 -0.0020996908     1     2     8     6
 0.2601306647     1     2     8     7
 0.1554931765     1     2     8    12
 0.1095017987     1     2     8    13
 0.0193169039     1     2     8    19
 0.2592174457     1     2     9     6
 0.0016754361     1     2     9     7
 -0.1095157147     1     2     9    12
 0.1555671954     1     2     9    13
 0.0889618205     1     2     9    19
 -0.0076165164     1     2    10     1
 0.1621804334     1     2    10     3
 -0.1862183961     1     2    10     5
 -0.0374582160     1     2    10    14
 0.0713936705     1     2    10    15
 0.0104590712     1     2    11     1
 -0.0397982237     1     2    11     3
 0.2211817077     1     2    11     5
 0.2458972011     1     2    11    14
 0.0170104316     1     2    11    15
 0.1556842094     1     2    12     8
 -0.1096550352     1     2    12     9
 -0.2475198522     1     2    12    16
 -0.0974440106     1     2    12    17
 0.1096390901     1     2    13     8
 0.1557690215     1     2    13     9
 0.0974621648     1     2    13    16
 -0.2475274511     1     2    13    17
 0.1102696489     1     2    14     4
 -0.0377945279     1     2    14    10
 0.2463698071     1     2    14    11
 -0.0333620573     1     2    14    18
 0.1176915643     1     2    15     4
 0.0714867244     1     2    15    10
 0.0168790902     1     2    15    11
 -0.1714469688     1     2    15    18
 0.1436951259     1     2    16     6
 -0.0932023180     1     2    16     7
 -0.2472591882     1     2    16    12
 0.0973531072     1     2    16    13
 0.0124701524     1     2    16    19
 -0.0930806831     1     2    17     6
 -0.1437703117     1     2    17     7
 -0.0973459952     1     2    17    12
 -0.2472621651     1     2    17    13
 -0.0127391387     1     2    17    19
 0.0018854498     1     2    18     1
 -0.1257190234     1     2    18     3
 -0.0023866417     1     2    18     5
 -0.0334372525     1     2    18    14
 -0.1714256542     1     2    18    15
 0.0193150675     1     2    19     8
 0.0889533628     1     2    19     9
 0.0124634155     1     2    19    16
 -0.0127322564     1     2    19    17
 0.0035506687     1     3     2     2
 -0.0000661013     1     3     2     4
 0.0001394595     1     3     2    10
 -0.0001948597     1     3     2    11
 -0.0000325130     1     3     2    18
 -0.6795211572     1     3     3     1
 0.0129053712     1     3     3     5
 0.0138298568     1     3     3    14
 -0.0023087167     1     3     3    15
 0.0000000006     1     3     4     1
 -0.2215808153     1     3     4     2
 -0.0048514573     1     3     4     4
 0.0070478130     1     3     4    10
 -0.0098959450     1     3     4    11
 0.0000225750     1     3     4    18
 0.0595307120     1     3     5     1
 -0.0223964395     1     3     5     5
 -0.0201406004     1     3     5    14
 -0.0001564625     1     3     5    15
 -0.0162393527     1     3     6     6
 0.0000250286     1     3     6     7
 0.0130194029     1     3     6    12
 -0.0182339975     1     3     6    13
 -0.0060074487     1     3     6    19
 0.0000250286     1     3     7     6
 -0.0163450841     1     3     7     7
 -0.0181650773     1     3     7    12
 -0.0130069634     1     3     7    13
 -0.0013502386     1     3     7    19
 -0.0162907453     1     3     8     8
 -0.0000062064     1     3     8     9
 0.0105657973     1     3     8    16
 0.0160668189     1     3     8    17
 -0.0000062064     1     3     9     8
 -0.0163179805     1     3     9     9
 -0.0160934314     1     3     9    16
 0.0106081591     1     3     9    17
 0.0000000004     1     3    10     1
 -0.1621804334     1     3    10     2
 0.0090857915     1     3    10     4
 -0.0079633777     1     3    10    10
 0.0149980829     1     3    10    11
 -0.0010839266     1     3    10    18
 -0.0000000001     1     3    11     1
 0.0397982237     1     3    11     2
 -0.0105954230     1     3    11     4
 0.0099269260     1     3    11    10
 -0.0205078993     1     3    11    11
 0.0014957210     1     3    11    18
 0.0079714249     1     3    12     6
 -0.0111586926     1     3    12     7
 -0.0177348523     1     3    12    12
 0.0000143836     1     3    12    13
 0.0016706406     1     3    12    19
 -0.0111422655     1     3    13     6
 -0.0079743899     1     3    13     7
 0.0000143836     1     3    13    12
 -0.0177628301     1     3    13    13
 -0.0039552482     1     3    13    19
 -0.0126837566     1     3    14     1
 -0.0125665940     1     3    14     5
 -0.0132857216     1     3    14    14
 -0.0013102169     1     3    14    15
 -0.1545752777     1     3    15     1
 0.0033462716     1     3    15     5
 0.0036001623     1     3    15    14
 0.0005289908     1     3    15    15
 0.0078278371     1     3    16     8
 -0.0118992295     1     3    16     9
 -0.0175457335     1     3    16    16
 0.0000059406     1     3    16    17
 0.0118934653     1     3    17     8
 0.0078370124     1     3    17     9
 0.0000059406     1     3    17    16
 -0.0175459871     1     3    17    17
 -0.0000000003     1     3    18     1
 0.1257190234     1     3    18     2
 -0.0015543363     1     3    18     4
 0.0009297694     1     3    18    10
 -0.0025866745     1     3    18    11
 0.0004480360     1     3    18    18
 -0.0018297668     1     3    19     6
 -0.0004112597     1     3    19     7
 0.0000906305     1     3    19    12
 -0.0002145682     1     3    19    13
 -0.0012153036     1     3    19    19
 0.0032562689     1     4     2     1
 0.0000661013     1     4     2     3
 -0.0001703820     1     4     2     5
 -0.0001579031     1     4     2    14
 0.0000466418     1     4     2    15
 0.0000000006     1     4     3     1
 -0.2215140579     1     4     3     2
 -0.0020722511     1     4     3    10
 0.0006810796     1     4     3    11
 0.0015699317     1     4     3    18
 -0.6188378697     1     4     4     1
 0.0048514573     1     4     4     3
 -0.0029008270     1     4     4     5
 -0.0054202479     1     4     4    14
 0.0029078453     1     4     4    15
 0.0000000006     1     4     5     1
 -0.2103834023     1     4     5     2
 0.0185308393     1     4     5    10
 -0.0230086197     1     4     5    11
 -0.0080352686     1     4     5    18
 0.0001202873     1     4     6     8
 -0.0154829636     1     4     6     9
 -0.0166534529     1     4     6    16
 0.0107754828     1     4     6    17
 -0.0155157799     1     4     7     8
 -0.0001050417     1     4     7     9
 0.0108297578     1     4     7    16
 0.0166870017     1     4     7    17
 0.0000765649     1     4     8     6
 -0.0165347024     1     4     8     7
 -0.0185886743     1     4     8    12
 -0.0131541205     1     4     8    13
 -0.0003544025     1     4     8    19
 -0.0167254970     1     4     9     6
 -0.0001652025     1     4     9     7
 0.0132020901     1     4     9    12
 -0.0188438240     1     4     9    13
 -0.0016321611     1     4     9    19
 -0.0755229235     1     4    10     1
 -0.0090857915     1     4    10     3
 0.0138832040     1     4    10     5
 0.0139283944     1     4    10    14
 -0.0068531107     1     4    10    15
 -0.1110963517     1     4    11     1
 0.0105954230     1     4    11     3
 -0.0146324509     1     4    11     5
 -0.0125932377     1     4    11    14
 0.0084431520     1     4    11    15
 -0.0123653398     1     4    12     8
 0.0087095246     1     4    12     9
 0.0166944365     1     4    12    16
 0.0065680025     1     4    12    17
 -0.0087082211     1     4    13     8
 -0.0123722733     1     4    13     9
 -0.0065794997     1     4    13    16
 0.0166992490     1     4    13    17
 0.0000000003     1     4    14     1
 -0.1102696489     1     4    14     2
 0.0123094163     1     4    14    10
 -0.0117715281     1     4    14    11
 -0.0056952270     1     4    14    18
 0.0000000003     1     4    15     1
 -0.1176915643     1     4    15     2
 -0.0011808464     1     4    15    10
 0.0006413902     1     4    15    11
 0.0005111289     1     4    15    18
 -0.0116763579     1     4    16     6
 0.0075691432     1     4    16     7
 0.0164089542     1     4    16    12
 -0.0064930789     1     4    16    13
 -0.0013348786     1     4    16    19
 0.0075653674     1     4    17     6
 0.0116786918     1     4    17     7
 0.0064369781     1     4    17    12
 0.0164324364     1     4    17    13
 0.0013636725     1     4    17    19
 0.1254204196     1     4    18     1
 0.0015543363     1     4    18     3
 -0.0028960345     1     4    18     5
 -0.0021591462     1     4    18    14
 0.0010570801     1     4    18    15
 -0.0007919625     1     4    19     8
 -0.0036472937     1     4    19     9
 -0.0042616515     1     4    19    16
 0.0043535771     1     4    19    17
 -0.0096369302     1     5     2     2
 0.0001703820     1     5     2     4
 -0.0003943364     1     5     2    10
 0.0005455308     1     5     2    11
 0.0000929300     1     5     2    18
 0.0595307120     1     5     3     1
 -0.0129053712     1     5     3     3
 -0.0076070975     1     5     3    14
 -0.0034729536     1     5     3    15
 0.0000000006     1     5     4     1
 -0.2102154423     1     5     4     2
 0.0029008270     1     5     4     4
 0.0046686526     1     5     4    10
 -0.0084422739     1     5     4    11
 -0.0051528689     1     5     4    18
 -0.6420966122     1     5     5     1
 0.0223964395     1     5     5     3
 -0.0010424332     1     5     5    14
 0.0150961937     1     5     5    15
 -0.0099802798     1     5     6     6
 -0.0000321678     1     5     6     7
 0.0042652324     1     5     6    12
 -0.0059353534     1     5     6    13
 0.0075712132     1     5     6    19
 -0.0000321678     1     5     7     6
 -0.0098443897     1     5     7     7
 -0.0060150001     1     5     7    12
 -0.0042796079     1     5     7    13
 0.0017017115     1     5     7    19
 -0.0082059648     1     5     8     8
 -0.0000084084     1     5     8     9
 0.0053734822     1     5     8    16
 0.0081738944     1     5     8    17
 -0.0000084084     1     5     9     8
 -0.0082428630     1     5     9     9
 -0.0081912936     1     5     9    16
 0.0054011782     1     5     9    17
 -0.0000000005     1     5    10     1
 0.1862183961     1     5    10     2
 -0.0138832040     1     5    10     4
 -0.0158829766     1     5    10    10
 0.0088026481     1     5    10    11
 0.0134628803     1     5    10    18
 0.0000000006     1     5    11     1
 -0.2211817077     1     5    11     2
 0.0146324509     1     5    11     4
 0.0168023247     1     5    11    10
 -0.0046083962     1     5    11    11
 -0.0156778461     1     5    11    18
 0.0032141646     1     5    12     6
 -0.0044408727     1     5    12     7
 -0.0087161807     1     5    12    12
 0.0000030171     1     5    12    13
 -0.0012079337     1     5    12    19
 -0.0045275605     1     5    13     6
 -0.0031985184     1     5    13     7
 0.0000030171     1     5    13    12
 -0.0087220494     1     5    13    13
 0.0028597879     1     5    13    19
 -0.2040278076     1     5    14     1
 0.0125665940     1     5    14     3
 0.0029861245     1     5    14    14
 0.0125758271     1     5    14    15
 0.0017123918     1     5    15     1
 -0.0033462716     1     5    15     3
 -0.0016797631     1     5    15    14
 -0.0065894000     1     5    15    15
 0.0032392135     1     5    16     8
 -0.0049238921     1     5    16     9
 -0.0070191802     1     5    16    16
 0.0000016000     1     5    16    17
 0.0049215606     1     5    17     8
 0.0032429247     1     5    17     9
 0.0000016000     1     5    17    16
 -0.0070192485     1     5    17    17
 0.0023866417     1     5    18     2
 0.0028960345     1     5    18     4
 0.0038990865     1     5    18    10
 -0.0001018457     1     5    18    11
 -0.0051523100     1     5    18    18
 0.0003467073     1     5    19     6
 0.0000779262     1     5    19     7
 0.0028604907     1     5    19    12
 -0.0067722233     1     5    19    13
 -0.0064118104     1     5    19    19
 -0.0000005887     1     6     2     8
 0.0002145106     1     6     2     9
 0.0002093724     1     6     2    16
 -0.0001368571     1     6     2    17
 0.0051358358     1     6     3    12
 -0.0071923351     1     6     3    13
 -0.0041622981     1     6     3    19
 0.0000424840     1     6     4     8
 0.0011966426     1     6     4     9
 -0.0050696279     1     6     4    16
 0.0032700201     1     6     4    17
 0.0010469148     1     6     5    12
 -0.0014442454     1     6     5    13
 0.0072066595     1     6     5    19
 -0.6028598488     1     6     6     1
 0.0162393527     1     6     6     3
 0.0099802798     1     6     6     5
 0.0102009005     1     6     6    14
 0.0049264607     1     6     6    15
 -0.0000876543     1     6     7     1
 -0.0000250286     1     6     7     3
 0.0000321678     1     6     7     5
 0.0000286915     1     6     7    14
 -0.0000196431     1     6     7    15
 0.0020996908     1     6     8     2
 -0.0000765649     1     6     8     4
 -0.0001108850     1     6     8    10
 0.0000425029     1     6     8    11
 0.0000683754     1     6     8    18
 0.0000000007     1     6     9     1
 -0.2592174457     1     6     9     2
 0.0167254970     1     6     9     4
 0.0122761077     1     6     9    10
 -0.0024449192     1     6     9    11
 -0.0083562929     1     6     9    18
 -0.0000186495     1     6    10     8
 0.0001492197     1     6    10     9
 -0.0014158861     1     6    10    16
 0.0009443823     1     6    10    17
 0.0000113610     1     6    11     8
 0.0001087244     1     6    11     9
 0.0011151216     1     6    11    16
 -0.0007397021     1     6    11    17
 0.1237458049     1     6    12     1
 -0.0079714249     1     6    12     3
 -0.0032141646     1     6    12     5
 -0.0045378522     1     6    12    14
 -0.0078750086     1     6    12    15
 -0.1729388265     1     6    13     1
 0.0111422655     1     6    13     3
 0.0045275605     1     6    13     5
 0.0063568102     1     6    13    14
 0.0109983252     1     6    13    15
 0.0004800132     1     6    14    12
 -0.0006834800     1     6    14    13
 0.0015089249     1     6    14    19
 -0.0032799308     1     6    15    12
 0.0046187774     1     6    15    13
 0.0009200280     1     6    15    19
 0.0000000004     1     6    16     1
 -0.1436951259     1     6    16     2
 0.0116763579     1     6    16     4
 0.0079877773     1     6    16    10
 0.0025781520     1     6    16    11
 -0.0116129073     1     6    16    18
 -0.0000000003     1     6    17     1
 0.0930806831     1     6    17     2
 -0.0075653674     1     6    17     4
 -0.0051613736     1     6    17    10
 -0.0016813813     1     6    17    11
 0.0075150505     1     6    17    18
 -0.0000032706     1     6    18     8
 0.0007313748     1     6    18     9
 -0.0029044527     1     6    18    16
 0.0018770676     1     6    18    17
 0.0158779123     1     6    19     1
 0.0018297668     1     6    19     3
 -0.0003467073     1     6    19     5
 -0.0056119338     1     6    19    14
 0.0043309310     1     6    19    15
 0.0002103964     1     7     2     8
 0.0000025000     1     7     2     9
 -0.0001329206     1     7     2    16
 -0.0002069391     1     7     2    17
 -0.0071665673     1     7     3    12
 -0.0051311850     1     7     3    13
 -0.0009355212     1     7     3    19
 0.0009796942     1     7     4     8
 0.0000583038     1     7     4     9
 0.0033207138     1     7     4    16
 0.0051009630     1     7     4    17
 -0.0014975197     1     7     5    12
 -0.0010565303     1     7     5    13
 0.0016197741     1     7     5    19
 -0.0000876543     1     7     6     1
 -0.0000250286     1     7     6     3
 0.0000321678     1     7     6     5
 0.0000286915     1     7     6    14
 -0.0000196431     1     7     6    15
 -0.6024895603     1     7     7     1
 0.0163450841     1     7     7     3
 0.0098443897     1     7     7     5
 0.0100796956     1     7     7    14
 0.0050094415     1     7     7    15
 0.0000000007     1     7     8     1
 -0.2601306647     1     7     8     2
 0.0165347024     1     7     8     4
 0.0123678774     1     7     8    10
 -0.0025497464     1     7     8    11
 -0.0083886502     1     7     8    18
 -0.0016754361     1     7     9     2
 0.0001652025     1     7     9     4
 0.0000682515     1     7     9    10
 0.0000061968     1     7     9    11
 -0.0000533431     1     7     9    18
 0.0002236723     1     7    10     8
 -0.0000159390     1     7    10     9
 0.0008547605     1     7    10    16
 0.0013604884     1     7    10    17
 0.0000572185     1     7    11     8
 0.0000125672     1     7    11     9
 -0.0006827079     1     7    11    16
 -0.0010798920     1     7    11    17
 -0.1732742938     1     7    12     1
 0.0111586926     1     7    12     3
 0.0044408727     1     7    12     5
 0.0063289486     1     7    12    14
 0.0110390911     1     7    12    15
 -0.1238063534     1     7    13     1
 0.0079743899     1     7    13     3
 0.0031985184     1     7    13     5
 0.0045328235     1     7    13    14
 0.0078823664     1     7    13    15
 -0.0006509497     1     7    14    12
 -0.0004741417     1     7    14    13
 0.0003391471     1     7    14    19
 0.0045341229     1     7    15    12
 0.0032646515     1     7    15    13
 0.0002067861     1     7    15    19
 -0.0000000003     1     7    16     1
 0.0932023180     1     7    16     2
 -0.0075691432     1     7    16     4
 -0.0052109398     1     7    16    10
 -0.0016457134     1     7    16    11
 0.0075495207     1     7    16    18
 -0.0000000004     1     7    17     1
 0.1437703117     1     7    17     2
 -0.0116786918     1     7    17     4
 -0.0080184155     1     7    17    10
 -0.0025561046     1     7    17    11
 0.0116342143     1     7    17    18
 0.0007227032     1     7    18     8
 0.0000072991     1     7    18     9
 0.0018939911     1     7    18    16
 0.0029149137     1     7    18    17
 0.0035687313     1     7    19     1
 0.0004112597     1     7    19     3
 -0.0000779262     1     7    19     5
 -0.0012613424     1     7    19    14
 0.0009734232     1     7    19    15
 0.0000005887     1     8     2     6
 -0.0002103964     1     8     2     7
 -0.0001874097     1     8     2    12
 -0.0001355171     1     8     2    13
 0.0000019711     1     8     2    19
 0.0026300656     1     8     3    16
 0.0040221358     1     8     3    17
 -0.0000424840     1     8     4     6
 -0.0009796942     1     8     4     7
 -0.0058886006     1     8     4    12
 -0.0042405780     1     8     4    13
 0.0004483273     1     8     4    19
 0.0020684097     1     8     5    16
 0.0031461875     1     8     5    17
 0.0021005732     1     8     6     2
 -0.0001202873     1     8     6     4
 -0.0001012768     1     8     6    10
 0.0000383306     1     8     6    11
 0.0000758732     1     8     6    18
 0.0000000007     1     8     7     1
 -0.2603402725     1     8     7     2
 0.0155157799     1     8     7     4
 0.0122356871     1     8     7    10
 -0.0027102246     1     8     7    11
 -0.0091760830     1     8     7    18
 -0.6034197446     1     8     8     1
 0.0162907453     1     8     8     3
 0.0082059648     1     8     8     5
 0.0071756362     1     8     8    14
 0.0084072960     1     8     8    15
 0.0000119993     1     8     9     1
 0.0000062064     1     8     9     3
 0.0000084084     1     8     9     5
 0.0000072088     1     8     9    14
 -0.0000031241     1     8     9    15
 0.0000186495     1     8    10     6
 -0.0002236723     1     8    10     7
 -0.0022924473     1     8    10    12
 -0.0016262107     1     8    10    13
 -0.0010922459     1     8    10    19
 -0.0000113610     1     8    11     6
 -0.0000572185     1     8    11     7
 0.0007091473     1     8    11    12
 0.0005055940     1     8    11    13
 0.0008815551     1     8    11    19
 0.0000000005     1     8    12     1
 -0.1556842094     1     8    12     2
 0.0123653398     1     8    12     4
 0.0082773951     1     8    12    10
 0.0016422926     1     8    12    11
 -0.0111345370     1     8    12    18
 0.0000000003     1     8    13     1
 -0.1096390901     1     8    13     2
 0.0087082211     1     8    13     4
 0.0058299487     1     8    13    10
 0.0011581236     1     8    13    11
 -0.0078429633     1     8    13    18
 0.0000301268     1     8    14    16
 0.0000424124     1     8    14    17
 -0.0008583966     1     8    15    16
 -0.0013067906     1     8    15    17
 0.1257120957     1     8    16     1
 -0.0078278371     1     8    16     3
 -0.0032392135     1     8    16     5
 -0.0049252180     1     8    16    14
 -0.0064848046     1     8    16    15
 0.1909693978     1     8    17     1
 -0.0118934653     1     8    17     3
 -0.0049215606     1     8    17     5
 -0.0074880203     1     8    17    14
 -0.0098521239     1     8    17    15
 0.0000032706     1     8    18     6
 -0.0007227032     1     8    18     7
 -0.0024502744     1     8    18    12
 -0.0017287249     1     8    18    13
 0.0001646471     1     8    18    19
 0.0000000001     1     8    19     1
 -0.0193150675     1     8    19     2
 0.0007919625     1     8    19     4
 0.0005998995     1     8    19    10
 -0.0008822277     1     8    19    11
 -0.0005359646     1     8    19    18
 -0.0002145106     1     9     2     6
 -0.0000025000     1     9     2     7
 0.0001381123     1     9     2    12
 -0.0002012134     1     9     2    13
 0.0000090775     1     9     2    19
 -0.0040608420     1     9     3    16
 0.0026916784     1     9     3    17
 -0.0011966426     1     9     4     6
 -0.0000583038     1     9     4     7
 0.0043093668     1     9     4    12
 -0.0062544877     1     9     4    13
 0.0020647206     1     9     4    19
 -0.0031526276     1     9     5    16
 0.0020786612     1     9     5    17
 0.0000000007     1     9     6     1
 -0.2594298577     1     9     6     2
 0.0154829636     1     9     6     4
 0.0121817357     1     9     6    10
 -0.0026287465     1     9     6    11
 -0.0091359669     1     9     6    18
 -0.0016776213     1     9     7     2
 0.0001050417     1     9     7     4
 0.0000762127     1     9     7    10
 -0.0000004783     1     9     7    11
 -0.0000572365     1     9     7    18
 0.0000119993     1     9     8     1
 0.0000062064     1     9     8     3
 0.0000084084     1     9     8     5
 0.0000072088     1     9     8    14
 -0.0000031241     1     9     8    15
 -0.6033670888     1     9     9     1
 0.0163179805     1     9     9     3
 0.0082428630     1     9     9     5
 0.0072072702     1     9     9    14
 0.0083935869     1     9     9    15
 -0.0001492197     1     9    10     6
 0.0000159390     1     9    10     7
 0.0016350260     1     9    10    12
 -0.0023393354     1     9    10    13
 -0.0050302153     1     9    10    19
 -0.0001087244     1     9    11     6
 -0.0000125672     1     9    11     7
 -0.0005101720     1     9    11    12
 0.0007334977     1     9    11    13
 0.0040599025     1     9    11    19
 -0.0000000003     1     9    12     1
 0.1096550352     1     9    12     2
 -0.0087095246     1     9    12     4
 -0.0058312874     1     9    12    10
 -0.0011594247     1     9    12    11
 0.0078452505     1     9    12    18
 0.0000000005     1     9    13     1
 -0.1557690215     1     9    13     2
 0.0123722733     1     9    13     4
 0.0082845153     1     9    13    10
 0.0016492132     1     9    13    11