&FCI NORB= 13,NELEC= 14,MS2=0,
 ORBSYM=1,1,1,1,1,1,1,1,1,1,1,1,1
 ISYM=1,
&END
 0.1611873533     1     1     2     2
 -0.0000524928     1     1     2     4
 0.0017493436     1     1     2    10
 0.5356406296     1     1     3     3
 -0.0000000079     1     1     3     4
 -0.0007762269     1     1     3     5
 -0.0000000003     1     1     3    10
 -0.0598879473     1     1     3    11
 -0.0000524928     1     1     4     2
 -0.0000000079     1     1     4     3
 0.5385395371     1     1     4     4
 -0.0000000008     1     1     4     5
 0.0184493931     1     1     4    10
 0.0000000011     1     1     4    11
 -0.0007762269     1     1     5     3
 -0.0000000008     1     1     5     4
 0.5030788023     1     1     5     5
 0.0000000070     1     1     5    10
 0.1734972499     1     1     5    11
 0.5091690116     1     1     6     6
 -0.0000000070     1     1     6     8
 0.0000000013     1     1     6     9
 -0.1944833385     1     1     6    12
 0.0000097734     1     1     6    13
 0.5091690116     1     1     7     7
 0.0000000013     1     1     7     8
 0.0000000071     1     1     7     9
 -0.0000097734     1     1     7    12
 -0.1944833385     1     1     7    13
 -0.0000000070     1     1     8     6
 0.0000000013     1     1     8     7
 0.5130255870     1     1     8     8
 0.0000000042     1     1     8    12
 -0.0000000008     1     1     8    13
 0.0000000013     1     1     9     6
 0.0000000071     1     1     9     7
 0.5130255870     1     1     9     9
 -0.0000000008     1     1     9    12
 -0.0000000044     1     1     9    13
 0.0017493436     1     1    10     2
 -0.0000000003     1     1    10     3
 0.0184493931     1     1    10     4
 0.0000000070     1     1    10     5
 0.5256427777     1     1    10    10
 0.0000000047     1     1    10    11
 -0.0598879473     1     1    11     3
 0.0000000011     1     1    11     4
 0.1734972499     1     1    11     5
 0.0000000047     1     1    11    10
 0.5176846268     1     1    11    11
 -0.1944833385     1     1    12     6
 -0.0000097734     1     1    12     7
 0.0000000042     1     1    12     8
 -0.0000000008     1     1    12     9
 0.4995562406     1     1    12    12
 0.0000097734     1     1    13     6
 -0.1944833385     1     1    13     7
 -0.0000000008     1     1    13     8
 -0.0000000044     1     1    13     9
 0.4995562406     1     1    13    13
 -0.1611873533     1     2     2     1
 -0.0000251903     1     2     2     3
 0.0016190691     1     2     2     5
 0.0016009694     1     2     2    11
 0.3759740428     1     2     3     4
 0.0128241438     1     2     3    10
 0.0000524928     1     2     4     1
 0.3759832019     1     2     4     3
 0.0353896817     1     2     4     5
 -0.0529992819     1     2     4    11
 0.0353882930     1     2     5     4
 -0.0000000001     1     2     5     5
 -0.0000000001     1     2     5     7
 -0.3335469117     1     2     5    10
 -0.0000000004     1     2     6     6
 0.3349344497     1     2     6     8
 -0.0651054027     1     2     6     9
 0.0000000001     1     2     6    12
 -0.0000000001     1     2     7     5
 0.0000000005     1     2     7     7
 -0.0651054027     1     2     7     8
 -0.3349344497     1     2     7     9
 -0.0000000001     1     2     7    13
 0.3349166982     1     2     8     6
 -0.0651019521     1     2     8     7
 0.0000000004     1     2     8     8
 -0.0000000002     1     2     8     9
 -0.2012841835     1     2     8    12
 0.0391366245     1     2     8    13
 -0.0651019522     1     2     9     6
 -0.3349166983     1     2     9     7
 -0.0000000002     1     2     9     8
 -0.0000000005     1     2     9     9
 0.0000000001     1     2     9    10
 0.0391366245     1     2     9    12
 0.2012841835     1     2     9    13
 -0.0017493436     1     2    10     1
 0.0128275998     1     2    10     3
 -0.3335134658     1     2    10     5
 0.0000000001     1     2    10     9
 0.0000000001     1     2    10    10
 -0.2212858343     1     2    10    11
 -0.0530173249     1     2    11     4
 -0.2213231390     1     2    11    10
 0.0000000001     1     2    12     6
 -0.2013037151     1     2    12     8
 0.0391404221     1     2    12     9
 -0.0000000001     1     2    12    12
 -0.0000000001     1     2    13     7
 0.0391404221     1     2    13     8
 0.2013037151     1     2    13     9
 0.0000000001     1     2    13    13
 0.0000251903     1     3     2     2
 0.0000000228     1     3     2     4
 -0.0000038021     1     3     2    10
 -0.5356406296     1     3     3     1
 0.0009409537     1     3     3     5
 0.0013566977     1     3     3    11
 0.0000000079     1     3     4     1
 -0.3759832019     1     3     4     2
 -0.0000630712     1     3     4     4
 0.0012017282     1     3     4    10
 0.0007762269     1     3     5     1
 -0.0176547679     1     3     5     5
 -0.0000000002     1     3     5    10
 -0.0211437161     1     3     5    11
 -0.0184757354     1     3     6     6
 0.0000000002     1     3     6     8
 0.0226950118     1     3     6    12
 -0.0000011405     1     3     6    13
 -0.0184757354     1     3     7     7
 -0.0000000002     1     3     7     9
 0.0000011405     1     3     7    12
 0.0226950118     1     3     7    13
 0.0000000001     1     3     8     6
 -0.0181436886     1     3     8     8
 -0.0000000003     1     3     8    12
 -0.0000000001     1     3     9     7
 -0.0181436886     1     3     9     9
 0.0000000003     1     3     9    13
 0.0000000003     1     3    10     1
 -0.0128275998     1     3    10     2
 0.0005816619     1     3    10     4
 -0.0000000002     1     3    10     5
 -0.0187067412     1     3    10    10
 -0.0000000003     1     3    10    11
 0.0598879473     1     3    11     1
 -0.0141541218     1     3    11     5
 -0.0000000002     1     3    11    10
 -0.0178853410     1     3    11    11
 0.0150316957     1     3    12     6
 0.0000007554     1     3    12     7
 -0.0000000002     1     3    12     8
 -0.0195617075     1     3    12    12
 -0.0000007554     1     3    13     6
 0.0150316957     1     3    13     7
 0.0000000002     1     3    13     9
 -0.0195617075     1     3    13    13
 0.0000524928     1     4     2     1
 -0.0000000228     1     4     2     3
 -0.0000003058     1     4     2     5
 0.0000114298     1     4     2    11
 0.0000000079     1     4     3     1
 -0.3759740428     1     4     3     2
 0.0005840853     1     4     3    10
 -0.5385395371     1     4     4     1
 0.0000630712     1     4     4     3
 0.0001366727     1     4     4     5
 -0.0001376187     1     4     4    11
 0.0000000008     1     4     5     1
 -0.0353882930     1     4     5     2
 0.0000000002     1     4     5     5
 0.0182570039     1     4     5    10
 0.0000000002     1     4     5    11
 0.0000000003     1     4     6     6
 -0.0180901102     1     4     6     8
 0.0035164013     1     4     6     9
 -0.0000000003     1     4     6    12
 0.0000000001     1     4     7     7
 0.0035164013     1     4     7     8
 0.0180901103     1     4     7     9
 -0.0000000003     1     4     7    13
 -0.0173789371     1     4     8     6
 0.0033781617     1     4     8     7
 0.0000000001     1     4     8     8
 0.0219163645     1     4     8    12
 -0.0042613011     1     4     8    13
 0.0033781616     1     4     9     6
 0.0173789371     1     4     9     7
 0.0000000003     1     4     9     9
 -0.0042613011     1     4     9    12
 -0.0219163645     1     4     9    13
 -0.0184493931     1     4    10     1
 -0.0005816619     1     4    10     3
 0.0174872987     1     4    10     5
 0.0000000002     1     4    10    10
 0.0216953045     1     4    10    11
 -0.0000000011     1     4    11     1
 0.0530173249     1     4    11     2
 0.0000000002     1     4    11     5
 0.0155937059     1     4    11    10
 0.0000000002     1     4    11    11
 -0.0000000002     1     4    12     6
 0.0153830201     1     4    12     8
 -0.0029909925     1     4    12     9
 0.0000000002     1     4    12    12
 -0.0000000002     1     4    13     7
 -0.0029909925     1     4    13     8
 -0.0153830201     1     4    13     9
 0.0000000002     1     4    13    13
 -0.0016190691     1     5     2     2
 0.0000003058     1     5     2     4
 -0.0000345346     1     5     2    10
 0.0007762269     1     5     3     1
 -0.0009409537     1     5     3     3
 -0.0068365119     1     5     3    11
 0.0000000008     1     5     4     1
 -0.0353896817     1     5     4     2
 -0.0001366727     1     5     4     4
 0.0005549366     1     5     4    10
 -0.5030788023     1     5     5     1
 0.0000000001     1     5     5     2
 0.0176547679     1     5     5     3
 -0.0000000002     1     5     5     4
 -0.0031172869     1     5     5    11
 -0.0014897353     1     5     6     6
 0.0010333785     1     5     6    12
 -0.0000000519     1     5     6    13
 0.0000000001     1     5     7     2
 -0.0014897353     1     5     7     7
 0.0000000519     1     5     7    12
 0.0010333785     1     5     7    13
 -0.0015834688     1     5     8     8
 -0.0015834688     1     5     9     9
 -0.0000000070     1     5    10     1
 0.3335134658     1     5    10     2
 0.0000000002     1     5    10     3
 -0.0174872987     1     5    10     4
 -0.0032602653     1     5    10    10
 -0.1734972499     1     5    11     1
 0.0141541218     1     5    11     3
 -0.0000000002     1     5    11     4
 -0.0087246083     1     5    11    11
 0.0011070229     1     5    12     6
 0.0000000556     1     5    12     7
 -0.0021116885     1     5    12    12
 -0.0000000556     1     5    13     6
 0.0011070229     1     5    13     7
 -0.0021116885     1     5    13    13
 0.0000176385     1     6     2     8
 -0.0000034286     1     6     2     9
 0.0075451926     1     6     3    12
 -0.0000003792     1     6     3    13
 -0.0004951498     1     6     4     8
 0.0000962485     1     6     4     9
 -0.0000000001     1     6     4    12
 -0.0001046999     1     6     5    12
 0.0000000052     1     6     5    13
 -0.5091690116     1     6     6     1
 0.0000000004     1     6     6     2
 0.0184757354     1     6     6     3
 -0.0000000003     1     6     6     4
 0.0014897353     1     6     6     5
 -0.0032099593     1     6     6    11
 0.0000000070     1     6     8     1
 -0.3349166982     1     6     8     2
 -0.0000000001     1     6     8     3
 0.0173789371     1     6     8     4
 0.0016927469     1     6     8    10
 -0.0000000013     1     6     9     1
 0.0651019522     1     6     9     2
 -0.0033781616     1     6     9     4
 -0.0003290404     1     6     9    10
 0.0000318127     1     6    10     8
 -0.0000061838     1     6    10     9
 0.0007790611     1     6    11    12
 -0.0000000392     1     6    11    13
 0.1944833385     1     6    12     1
 -0.0000000001     1     6    12     2
 -0.0150316957     1     6    12     3
 0.0000000002     1     6    12     4
 -0.0011070229     1     6    12     5
 0.0059182006     1     6    12    11
 -0.0000097734     1     6    13     1
 0.0000007554     1     6    13     3
 0.0000000556     1     6    13     5
 -0.0000002975     1     6    13    11
 -0.0000034286     1     7     2     8
 -0.0000176385     1     7     2     9
 0.0000003792     1     7     3    12
 0.0075451926     1     7     3    13
 0.0000962485     1     7     4     8
 0.0004951498     1     7     4     9
 -0.0000000001     1     7     4    13
 0.0000000001     1     7     5     2
 -0.0000000052     1     7     5    12
 -0.0001046999     1     7     5    13
 -0.5091690116     1     7     7     1
 -0.0000000005     1     7     7     2
 0.0184757354     1     7     7     3
 -0.0000000001     1     7     7     4
 0.0014897353     1     7     7     5
 -0.0032099593     1     7     7    11
 -0.0000000013     1     7     8     1
 0.0651019521     1     7     8     2
 -0.0033781617     1     7     8     4
 -0.0003290404     1     7     8    10
 -0.0000000071     1     7     9     1
 0.3349166983     1     7     9     2
 0.0000000001     1     7     9     3
 -0.0173789371     1     7     9     4
 -0.0016927469     1     7     9    10
 -0.0000061838     1     7    10     8
 -0.0000318127     1     7    10     9
 0.0000000392     1     7    11    12
 0.0007790611     1     7    11    13
 0.0000097734     1     7    12     1
 -0.0000007554     1     7    12     3
 -0.0000000556     1     7    12     5
 0.0000002975     1     7    12    11
 0.1944833385     1     7    13     1
 0.0000000001     1     7    13     2
 -0.0150316957     1     7    13     3
 0.0000000002     1     7    13     4
 -0.0011070229     1     7    13     5
 0.0059182006     1     7    13    11
 -0.0000176385     1     8     2     6
 0.0000034286     1     8     2     7
 0.0000196440     1     8     2    12
 -0.0000038194     1     8     2    13
 -0.0000000001     1     8     3    12
 0.0004951498     1     8     4     6
 -0.0000962485     1     8     4     7
 0.0064030333     1     8     4    12
 -0.0012449717     1     8     4    13
 0.0000000070     1     8     6     1
 -0.3349344497     1     8     6     2
 -0.0000000002     1     8     6     3
 0.0180901102     1     8     6     4
 0.0017986046     1     8     6    10
 -0.0000000013     1     8     7     1
 0.0651054027     1     8     7     2
 -0.0035164013     1     8     7     4
 -0.0003496173     1     8     7    10
 -0.5130255870     1     8     8     1
 -0.0000000004     1     8     8     2
 0.0181436886     1     8     8     3
 -0.0000000001     1     8     8     4
 0.0015834688     1     8     8     5
 -0.0034919574     1     8     8    11
 0.0000000002     1     8     9     2
 -0.0000318127     1     8    10     6
 0.0000061838     1     8    10     7
 0.0002842560     1     8    10    12
 -0.0000552692     1     8    10    13
 -0.0000000042     1     8    12     1
 0.2013037151     1     8    12     2
 0.0000000002     1     8    12     3
 -0.0153830201     1     8    12     4
 -0.0009724707     1     8    12    10
 0.0000000008     1     8    13     1
 -0.0391404221     1     8    13     2
 0.0029909925     1     8    13     4
 0.0001890820     1     8    13    10
 0.0000034286     1     9     2     6
 0.0000176385     1     9     2     7
 -0.0000038194     1     9     2    12
 -0.0000196440     1     9     2    13
 0.0000000001     1     9     3    13
 -0.0000962485     1     9     4     6
 -0.0004951498     1     9     4     7
 -0.0012449717     1     9     4    12
 -0.0064030333     1     9     4    13
 -0.0000000013     1     9     6     1
 0.0651054027     1     9     6     2
 -0.0035164013     1     9     6     4
 -0.0003496173     1     9     6    10
 -0.0000000071     1     9     7     1
 0.3349344497     1     9     7     2
 0.0000000002     1     9     7     3
 -0.0180901103     1     9     7     4
 -0.0017986046     1     9     7    10
 0.0000000002     1     9     8     2
 -0.5130255870     1     9     9     1
 0.0000000005     1     9     9     2
 0.0181436886     1     9     9     3
 -0.0000000003     1     9     9     4
 0.0015834688     1     9     9     5
 -0.0034919574     1     9     9    11
 -0.0000000001     1     9    10     2
 0.0000061838     1     9    10     6
 0.0000318127     1     9    10     7
 -0.0000552692     1     9    10    12
 -0.0002842560     1     9    10    13
 0.0000000008     1     9    12     1
 -0.0391404221     1     9    12     2
 0.0029909925     1     9    12     4
 0.0001890820     1     9    12    10
 0.0000000044     1     9    13     1
 -0.2013037151     1     9    13     2
 -0.0000000002     1     9    13     3
 0.0153830201     1     9    13     4
 0.0009724707     1     9    13    10
 -0.0017493436     1    10     2     1
 0.0000038021     1    10     2     3
 0.0000345346     1    10     2     5
 0.0000374669     1    10     2    11
 0.0000000003     1    10     3     1
 -0.0128241438     1    10     3     2
 -0.0005840853     1    10     3     4
 -0.0000000001     1    10     3    11
 -0.0184493931     1    10     4     1
 -0.0012017282     1    10     4     3
 -0.0005549366     1    10     4     5
 0.0059310090     1    10     4    11
 -0.0000000070     1    10     5     1
 0.3335469117     1    10     5     2
 0.0000000002     1    10     5     3
 -0.0182570039     1    10     5     4
 -0.0017986046     1    10     6     8
 0.0003496173     1    10     6     9
 0.0003496173     1    10     7     8
 0.0017986046     1    10     7     9
 -0.0016927469     1    10     8     6
 0.0003290404     1    10     8     7
 0.0012632499     1    10     8    12
 -0.0002456196     1    10     8    13
 -0.0000000001     1    10     9     2
 0.0003290404     1    10     9     6
 0.0016927469     1    10     9     7
 -0.0002456196     1    10     9    12
 -0.0012632499     1    10     9    13
 -0.5256427777     1    10    10     1
 -0.0000000001     1    10    10     2
 0.0187067412     1    10    10     3
 -0.0000000002     1    10    10     4
 0.0032602653     1    10    10     5
 -0.0020617964     1    10    10    11
 -0.0000000047     1    10    11     1
 0.2213231390     1    10    11     2
 0.0000000002     1    10    11     3
 -0.0155937059     1    10    11     4
 -0.0000000001     1    10    11    11
 0.0009724707     1    10    12     8
 -0.0001890820     1    10    12     9
 -0.0001890820     1    10    13     8
 -0.0009724707     1    10    13     9
 -0.0016009694     1    11     2     2
 -0.0000114298     1    11     2     4
 -0.0000374669     1    11     2    10
 0.0598879473     1    11     3     1
 -0.0013566977     1    11     3     3
 0.0068365119     1    11     3     5
 0.0000000001     1    11     3    10
 -0.0000000011     1    11     4     1
 0.0529992819     1    11     4     2
 0.0001376187     1    11     4     4
 -0.0059310090     1    11     4    10
 -0.1734972499     1    11     5     1
 0.0211437161     1    11     5     3
 -0.0000000002     1    11     5     4
 0.0031172869     1    11     5     5
 0.0032099593     1    11     6     6
 -0.0052047987     1    11     6    12
 0.0000002616     1    11     6    13
 0.0032099593     1    11     7     7
 -0.0000002616     1    11     7    12
 -0.0052047987     1    11     7    13
 0.0034919574     1    11     8     8
 0.0034919574     1    11     9     9
 -0.0000000047     1    11    10     1
 0.2212858343     1    11    10     2
 0.0000000003     1    11    10     3
 -0.0216953045     1    11    10     4
 0.0020617964     1    11    10    10
 -0.5176846268     1    11    11     1
 0.0178853410     1    11    11     3
 -0.0000000002     1    11    11     4
 0.0087246083     1    11    11     5
 0.0000000001     1    11    11    10
 -0.0059182006     1    11    12     6
 -0.0000002975     1    11    12     7
 0.0067371326     1    11    12    12
 0.0000002975     1    11    13     6
 -0.0059182006     1    11    13     7
 0.0067371326     1    11    13    13
 -0.0000196440     1    12     2     8
 0.0000038194     1    12     2     9
 -0.0075451926     1    12     3     6
 -0.0000003792     1    12     3     7
 0.0000000001     1    12     3     8
 0.0000000001     1    12     4     6
 -0.0064030333     1    12     4     8
 0.0012449717     1    12     4     9
 0.0001046999     1    12     5     6
 0.0000000052     1    12     5     7
 0.1944833385     1    12     6     1
 -0.0000000001     1    12     6     2
 -0.0226950118     1    12     6     3
 0.0000000003     1    12     6     4
 -0.0010333785     1    12     6     5
 0.0052047987     1    12     6    11
 0.0000097734     1    12     7     1
 -0.0000011405     1    12     7     3
 -0.0000000519     1    12     7     5
 0.0000002616     1    12     7    11
 -0.0000000042     1    12     8     1
 0.2012841835     1    12     8     2
 0.0000000003     1    12     8     3
 -0.0219163645     1    12     8     4
 -0.0012632499     1    12     8    10
 0.0000000008     1    12     9     1
 -0.0391366245     1    12     9     2
 0.0042613011     1    12     9     4
 0.0002456196     1    12     9    10
 -0.0002842560     1    12    10     8
 0.0000552692     1    12    10     9
 -0.0007790611     1    12    11     6
 -0.0000000392     1    12    11     7
 -0.4995562406     1    12    12     1
 0.0000000001     1    12    12     2
 0.0195617075     1    12    12     3
 -0.0000000002     1    12    12     4
 0.0021116885     1    12    12     5
 -0.0067371326     1    12    12    11
 0.0000038194     1    13     2     8
 0.0000196440     1    13     2     9
 0.0000003792     1    13     3     6
 -0.0075451926     1    13     3     7
 -0.0000000001     1    13     3     9
 0.0000000001     1    13     4     7
 0.0012449717     1    13     4     8
 0.0064030333     1    13     4     9
 -0.0000000052     1    13     5     6
 0.0001046999     1    13     5     7
 -0.0000097734     1    13     6     1
 0.0000011405     1    13     6     3
 0.0000000519     1    13     6     5
 -0.0000002616     1    13     6    11
 0.1944833385     1    13     7     1
 0.0000000001     1    13     7     2
 -0.0226950118     1    13     7     3
 0.0000000003     1    13     7     4
 -0.0010333785     1    13     7     5
 0.0052047987     1    13     7    11
 0.0000000008     1    13     8     1
 -0.0391366245     1    13     8     2
 0.0042613011     1    13     8     4
 0.0002456196     1    13     8    10
 0.0000000044     1    13     9     1
 -0.2012841835     1    13     9     2
 -0.0000000003     1    13     9     3
 0.0219163645     1    13     9     4
 0.0012632499     1    13     9    10
 0.0000552692     1    13    10     8
 0.0002842560     1    13    10     9
 0.0000000392     1    13    11     6
 -0.0007790611     1    13    11     7
 -0.4995562406     1    13    13     1
 -0.0000000001     1    13    13     2
 0.0195617075     1    13    13     3
 -0.0000000002     1    13    13     4
 0.0021116885     1    13    13     5
 -0.0067371326     1    13    13    11
 -0.1611873533     2     1     1     2
 0.0000524928     2     1     1     4
 -0.0017493436     2     1     1    10
 -0.0000251903     2     1     3     2
 0.3759832019     2     1     3     4
 0.0128275998     2     1     3    10
 0.3759740428     2     1     4     3
 0.0353882930     2     1     4     5
 -0.0530173249     2     1     4    11
 0.0016190691     2     1     5     2
 0.0353896817     2     1     5     4
 -0.0000000001     2     1     5     5
 -0.0000000001     2     1     5     7
 -0.3335134658     2     1     5    10
 -0.0000000004     2     1     6     6
 0.3349166982     2     1     6     8
 -0.0651019522     2     1     6     9
 0.0000000001     2     1     6    12
 -0.0000000001     2     1     7     5
 0.0000000005     2     1     7     7
 -0.0651019521     2     1     7     8
 -0.3349166983     2     1     7     9
 -0.0000000001     2     1     7    13
 0.3349344497     2     1     8     6
 -0.0651054027     2     1     8     7
 0.0000000004     2     1     8     8
 -0.0000000002     2     1     8     9
 -0.2013037151     2     1     8    12
 0.0391404221     2     1     8    13
 -0.0651054027     2     1     9     6
 -0.3349344497     2     1     9     7
 -0.0000000002     2     1     9     8
 -0.0000000005     2     1     9     9
 0.0000000001     2     1     9    10
 0.0391404221     2     1     9    12
 0.2013037151     2     1     9    13
 0.0128241438     2     1    10     3
 -0.3335469117     2     1    10     5
 0.0000000001     2     1    10     9
 0.0000000001     2     1    10    10
 -0.2213231390     2     1    10    11
 0.0016009694     2     1    11     2
 -0.0529992819     2     1    11     4
 -0.2212858343     2     1    11    10
 0.0000000001     2     1    12     6
 -0.2012841835     2     1    12     8
 0.0391366245     2     1    12     9
 -0.0000000001     2     1    12    12
 -0.0000000001     2     1    13     7
 0.0391366245     2     1    13     8
 0.2012841835     2     1    13     9
 0.0000000001     2     1    13    13
 0.1611873533     2     2     1     1
 0.0000251903     2     2     1     3
 -0.0016190691     2     2     1     5
 -0.0016009694     2     2     1    11
 0.0000251903     2     2     3     1
 0.5356498649     2     2     3     3
 0.0000000079     2     2     3     4
 -0.0007795150     2     2     3     5
 0.0000000003     2     2     3    10
 -0.0599067213     2     2     3    11
 0.0000000079     2     2     4     3
 0.5385298950     2     2     4     4
 0.0000000008     2     2     4     5
 0.0184604529     2     2     4    10
 -0.0000000011     2     2     4    11
 -0.0016190691     2     2     5     1
 -0.0007795150     2     2     5     3
 0.0000000008     2     2     5     4
 0.5031109752     2     2     5     5
 -0.0000000070     2     2     5    10
 0.1735327378     2     2     5    11
 0.5091850806     2     2     6     6
 0.0000000070     2     2     6     8
 -0.0000000013     2     2     6     9
 -0.1945014930     2     2     6    12
 0.0000097743     2     2     6    13
 0.5091850806     2     2     7     7
 -0.0000000013     2     2     7     8
 -0.0000000070     2     2     7     9
 -0.0000097743     2     2     7    12
 -0.1945014930     2     2     7    13
 0.0000000070     2     2     8     6
 -0.0000000013     2     2     8     7
 0.5130094210     2     2     8     8
 -0.0000000043     2     2     8    12
 0.0000000008     2     2     8    13
 -0.0000000013     2     2     9     6
 -0.0000000070     2     2     9     7
 0.5130094210     2     2     9     9
 0.0000000008     2     2     9    12
 0.0000000041     2     2     9    13
 0.0000000003     2     2    10     3
 0.0184604529     2     2    10     4
 -0.0000000070     2     2    10     5
 0.5256099052     2     2    10    10
 -0.0000000047     2     2    10    11
 -0.0016009694     2     2    11     1
 -0.0599067213     2     2    11     3
 -0.0000000011     2     2    11     4
 0.1735327378     2     2    11     5
 -0.0000000047     2     2    11    10
 0.5177296575     2     2    11    11
 -0.1945014930     2     2    12     6
 -0.0000097743     2     2    12     7
 -0.0000000043     2     2    12     8
 0.0000000008     2     2    12     9
 0.4995777545     2     2    12    12
 0.0000097743     2     2    13     6
 -0.1945014930     2     2    13     7
 0.0000000008     2     2    13     8
 0.0000000041     2     2    13     9
 0.4995777545     2     2    13    13
 -0.0000251903     2     3     1     2
 -0.0000000228     2     3     1     4
 0.0000038021     2     3     1    10
 -0.5356498649     2     3     3     2
 -0.0000048921     2     3     3     4
 -0.0011844721     2     3     3    10
 -0.3759740428     2     3     4     1
 -0.0000000079     2     3     4     2
 -0.0014321124     2     3     4     5
 -0.0015351343     2     3     4    11
 0.0007795150     2     3     5     2
 -0.0007251549     2     3     5     4
 -0.0000000001     2     3     5     5
 0.0185978034     2     3     5    10
 -0.0000000003     2     3     5    11
 -0.0000000001     2     3     6     6
 -0.0182180839     2     3     6     8
 0.0035412770     2     3     6     9
 0.0000000003     2     3     6    12
 -0.0000000003     2     3     7     7
 0.0035412770     2     3     7     8
 0.0182180839     2     3     7     9
 0.0000000003     2     3     7    13
 -0.0171690359     2     3     8     6
 0.0033373605     2     3     8     7
 -0.0000000003     2     3     8     8
 0.0215624579     2     3     8    12
 -0.0041924895     2     3     8    13
 0.0033373605     2     3     9     6
 0.0171690359     2     3     9     7
 -0.0000000001     2     3     9     9
 -0.0041924895     2     3     9    12
 -0.0215624579     2     3     9    13
 -0.0128241438     2     3    10     1
 -0.0000000003     2     3    10     2
 0.0170987575     2     3    10     5
 -0.0000000003     2     3    10    10
 0.0210074535     2     3    10    11
 0.0599067213     2     3    11     2
 -0.0009105182     2     3    11     4
 -0.0000000002     2     3    11     5
 0.0152634465     2     3    11    10
 -0.0000000002     2     3    11    11
 0.0000000002     2     3    12     6
 0.0151634792     2     3    12     8
 -0.0029483061     2     3    12     9
 -0.0000000002     2     3    12    12
 0.0000000002     2     3    13     7
 -0.0029483061     2     3    13     8
 -0.0151634792     2     3    13     9
 -0.0000000002     2     3    13    13
 -0.0000524928     2     4     1     1
 0.0000000228     2     4     1     3
 0.0000003058     2     4     1     5
 -0.0000114298     2     4     1    11
 -0.3759832019     2     4     3     1
 -0.0000000079     2     4     3     2
 0.0000048921     2     4     3     3
 -0.0006976303     2     4     3     5
 -0.0006877968     2     4     3    11
 -0.5385298950     2     4     4     2
 -0.0004069405     2     4     4    10
 -0.0353896817     2     4     5     1
 -0.0000000008     2     4     5     2
 0.0007251549     2     4     5     3
 -0.0173648790     2     4     5     5
 0.0000000001     2     4     5    10
 -0.0209376216     2     4     5    11
 -0.0184146049     2     4     6     6
 -0.0000000002     2     4     6     8
 0.0226203358     2     4     6    12
 -0.0000011367     2     4     6    13
 -0.0184146049     2     4     7     7
 0.0000000002     2     4     7     9
 0.0000011367     2     4     7    12
 0.0226203358     2     4     7    13
 -0.0000000001     2     4     8     6
 -0.0184827589     2     4     8     8
 0.0000000003     2     4     8    12
 0.0000000001     2     4     9     7
 -0.0184827589     2     4     9     9
 -0.0000000003     2     4     9    13
 -0.0184604529     2     4    10     2
 0.0000000001     2     4    10     5
 -0.0192643312     2     4    10    10
 0.0000000003     2     4    10    11
 0.0529992819     2     4    11     1
 0.0000000011     2     4    11     2
 0.0009105182     2     4    11     3
 -0.0143292189     2     4    11     5
 0.0000000002     2     4    11    10
 -0.0185450478     2     4    11    11
 0.0152193122     2     4    12     6
 0.0000007648     2     4    12     7
 0.0000000002     2     4    12     8
 -0.0198728785     2     4    12    12
 -0.0000007648     2     4    13     6
 0.0152193122     2     4    13     7