&FCI NORB= 10,NELEC= 10,MS2=0,
 ORBSYM=1,1,1,1,1,1,1,1,1,1
 ISYM=1,
&END
 0.2693361818     1     1     2     2
 0.2693361658     1     1     3     3
 0.0000000203     1     1     3     8
 0.2140812145     1     1     4     4
 0.2140812446     1     1     5     5
 0.2512868015     1     1     6     6
 0.2512867944     1     1     7     7
 0.0000000203     1     1     8     3
 0.1878342955     1     1     8     8
 0.1765854551     1     1     9     9
 0.1765854425     1     1    10    10
 -0.2693361818     1     2     2     1
 -0.0000000152     1     2     2     6
 0.0023878287     1     2     2     7
 -0.0023878274     1     2     3     6
 -0.0000000152     1     2     3     7
 0.0000000004     1     2     4     9
 -0.0001247829     1     2     4    10
 0.0001247827     1     2     5     9
 0.0000000004     1     2     5    10
 -0.0000000002     1     2     6     3
 0.0005934891     1     2     6     8
 -0.0000000018     1     2     7     8
 -0.0012046000     1     2     8     6
 0.0000000037     1     2     8     7
 0.0000000091     1     2     9     4
 0.0032064016     1     2     9     5
 -0.0032064076     1     2    10     4
 0.0000000091     1     2    10     5
 -0.0023878272     1     3     2     6
 -0.0000000152     1     3     2     7
 -0.2693361658     1     3     3     1
 0.0000000152     1     3     3     6
 -0.0023878359     1     3     3     7
 0.0001247836     1     3     4     9
 0.0000000004     1     3     4    10
 -0.0000000004     1     3     5     9
 0.0001247828     1     3     5    10
 0.0000000002     1     3     6     2
 -0.0000000018     1     3     6     8
 -0.0005934902     1     3     7     8
 -0.0000000203     1     3     8     1
 0.0000000037     1     3     8     6
 0.0012045997     1     3     8     7
 0.0032064040     1     3     9     4
 -0.0000000091     1     3     9     5
 0.0000000091     1     3    10     4
 0.0032064089     1     3    10     5
 -0.0000000087     1     4     2     9
 0.0030335144     1     4     2    10
 -0.0030335098     1     4     3     9
 -0.0000000087     1     4     3    10
 -0.2140812145     1     4     4     1
 0.0000000001     1     4     4     6
 0.0268599532     1     4     4     7
 -0.0268599567     1     4     5     6
 0.0000000001     1     4     5     7
 -0.0000000144     1     4     6     5
 -0.0379882110     1     4     8     9
 0.0000000092     1     4     8    10
 -0.0000000091     1     4     9     2
 -0.0032064040     1     4     9     3
 -0.0377201755     1     4     9     8
 0.0032064076     1     4    10     2
 -0.0000000091     1     4    10     3
 0.0000000092     1     4    10     8
 -0.0030335083     1     5     2     9
 -0.0000000087     1     5     2    10
 0.0000000087     1     5     3     9
 -0.0030335157     1     5     3    10
 -0.0268599430     1     5     4     6
 0.0000000001     1     5     4     7
 -0.2140812446     1     5     5     1
 -0.0000000001     1     5     5     6
 -0.0268599400     1     5     5     7
 0.0000000144     1     5     6     4
 0.0000000092     1     5     8     9
 0.0379881685     1     5     8    10
 -0.0032064016     1     5     9     2
 0.0000000091     1     5     9     3
 0.0000000092     1     5     9     8
 -0.0000000091     1     5    10     2
 -0.0032064089     1     5    10     3
 0.0377201328     1     5    10     8
 0.0000000152     1     6     2     2
 0.0023878272     1     6     2     3
 0.0022624012     1     6     2     8
 0.0023878274     1     6     3     2
 -0.0000000152     1     6     3     3
 -0.0000000070     1     6     3     8
 -0.0000000001     1     6     4     4
 0.0268599430     1     6     4     5
 0.0268599567     1     6     5     4
 0.0000000001     1     6     5     5
 -0.2512868015     1     6     6     1
 0.0012046000     1     6     8     2
 -0.0000000037     1     6     8     3
 0.0000000041     1     6     9     9
 0.0083244493     1     6     9    10
 0.0083244495     1     6    10     9
 -0.0000000041     1     6    10    10
 -0.0023878287     1     7     2     2
 0.0000000152     1     7     2     3
 -0.0000000070     1     7     2     8
 0.0000000152     1     7     3     2
 0.0023878359     1     7     3     3
 -0.0022624022     1     7     3     8
 -0.0268599532     1     7     4     4
 -0.0000000001     1     7     4     5
 -0.0000000001     1     7     5     4
 0.0268599400     1     7     5     5
 -0.2512867944     1     7     7     1
 -0.0000000037     1     7     8     2
 -0.0012045997     1     7     8     3
 0.0000000100     1     7     8     8
 0.0083244616     1     7     9     9
 -0.0000000041     1     7     9    10
 -0.0000000041     1     7    10     9
 -0.0083244487     1     7    10    10
 -0.0022624012     1     8     2     6
 0.0000000070     1     8     2     7
 -0.0000000203     1     8     3     1
 0.0000000070     1     8     3     6
 0.0022624022     1     8     3     7
 -0.0002891688     1     8     4     9
 0.0000000001     1     8     4    10
 0.0000000001     1     8     5     9
 0.0002891690     1     8     5    10
 -0.0005934891     1     8     6     2
 0.0000000018     1     8     6     3
 0.0000000018     1     8     7     2
 0.0005934902     1     8     7     3
 -0.1878342955     1     8     8     1
 -0.0000000100     1     8     8     7
 0.0377201755     1     8     9     4
 -0.0000000092     1     8     9     5
 -0.0000000092     1     8    10     4
 -0.0377201328     1     8    10     5
 0.0000000087     1     9     2     4
 0.0030335083     1     9     2     5
 0.0030335098     1     9     3     4
 -0.0000000087     1     9     3     5
 -0.0000000004     1     9     4     2
 -0.0001247836     1     9     4     3
 0.0002891688     1     9     4     8
 -0.0001247827     1     9     5     2
 0.0000000004     1     9     5     3
 -0.0000000001     1     9     5     8
 0.0379882110     1     9     8     4
 -0.0000000092     1     9     8     5
 -0.1765854551     1     9     9     1
 -0.0000000041     1     9     9     6
 -0.0083244616     1     9     9     7
 -0.0083244495     1     9    10     6
 0.0000000041     1     9    10     7
 -0.0030335144     1    10     2     4
 0.0000000087     1    10     2     5
 0.0000000087     1    10     3     4
 0.0030335157     1    10     3     5
 0.0001247829     1    10     4     2
 -0.0000000004     1    10     4     3
 -0.0000000001     1    10     4     8
 -0.0000000004     1    10     5     2
 -0.0001247828     1    10     5     3
 -0.0002891690     1    10     5     8
 -0.0000000092     1    10     8     4
 -0.0379881685     1    10     8     5
 -0.0083244493     1    10     9     6
 0.0000000041     1    10     9     7
 -0.1765854425     1    10    10     1
 0.0000000041     1    10    10     6
 0.0083244487     1    10    10     7
 -0.2693361818     2     1     1     2
 -0.0000000002     2     1     3     6
 0.0000000091     2     1     4     9
 -0.0032064076     2     1     4    10
 0.0032064016     2     1     5     9
 0.0000000091     2     1     5    10
 -0.0000000152     2     1     6     2
 -0.0023878274     2     1     6     3
 -0.0012046000     2     1     6     8
 0.0023878287     2     1     7     2
 -0.0000000152     2     1     7     3
 0.0000000037     2     1     7     8
 0.0005934891     2     1     8     6
 -0.0000000018     2     1     8     7
 0.0000000004     2     1     9     4
 0.0001247827     2     1     9     5
 -0.0001247829     2     1    10     4
 0.0000000004     2     1    10     5
 0.2693361818     2     2     1     1
 0.0000000152     2     2     1     6
 -0.0023878287     2     2     1     7
 0.2578299490     2     2     3     3
 0.0000000202     2     2     3     8
 0.2652363250     2     2     4     4
 -0.0000000109     2     2     4     5
 -0.0000000109     2     2     5     4
 0.2686849634     2     2     5     5
 0.0000000152     2     2     6     1
 0.2614632759     2     2     6     6
 -0.0000000118     2     2     6     7
 -0.0023878287     2     2     7     1
 -0.0000000118     2     2     7     6
 0.2576720062     2     2     7     7
 0.0000000202     2     2     8     3
 0.1892658138     2     2     8     8
 0.1750975000     2     2     9     9
 0.0000000332     2     2     9    10
 0.0000000332     2     2    10     9
 0.1848325360     2     2    10    10
 0.0023878272     2     3     1     6
 0.0000000152     2     3     1     7
 -0.2578299490     2     3     3     2
 0.0000000109     2     3     4     4
 -0.0020837828     2     3     4     5
 -0.0013648583     2     3     5     4
 -0.0000000109     2     3     5     5
 0.0023878274     2     3     6     1
 -0.0000000118     2     3     6     6
 -0.0010241864     2     3     6     7
 0.0000000152     2     3     7     1
 -0.0027670687     2     3     7     6
 0.0000000118     2     3     7     7
 -0.0000000202     2     3     8     2
 0.0000000332     2     3     9     9
 0.0051833067     2     3     9    10
 0.0045517302     2     3    10     9
 -0.0000000332     2     3    10    10
 0.0000000087     2     4     1     9
 -0.0030335144     2     4     1    10
 -0.0000716588     2     4     3     5
 -0.2652363250     2     4     4     2
 -0.0000000109     2     4     4     3
 0.0000000030     2     4     4     8
 0.0000000109     2     4     5     2
 0.0013648583     2     4     5     3
 0.0009762975     2     4     5     8
 -0.0012760834     2     4     6     9
 -0.0000000069     2     4     6    10
 0.0000000139     2     4     7     9
 0.0008216639     2     4     7    10
 0.0000000006     2     4     8     5
 -0.0000000004     2     4     9     1
 -0.0001052786     2     4     9     6
 0.0000000008     2     4     9     7
 0.0001247829     2     4    10     1
 0.0000000002     2     4    10     6
 0.0002176965     2     4    10     7
 0.0030335083     2     5     1     9
 0.0000000087     2     5     1    10
 0.0000716588     2     5     3     4
 0.0000000109     2     5     4     2
 0.0020837828     2     5     4     3
 0.0009762969     2     5     4     8
 -0.2686849634     2     5     5     2
 0.0000000109     2     5     5     3
 -0.0000000030     2     5     5     8
 0.0000000038     2     5     6     9
 0.0043419855     2     5     6    10
 -0.0022442305     2     5     7     9
 -0.0000000032     2     5     7    10
 -0.0000000006     2     5     8     4
 -0.0001247827     2     5     9     1
 0.0000000008     2     5     9     6
 0.0000731328     2     5     9     7
 -0.0000000004     2     5    10     1
 0.0002498437     2     5    10     6
 -0.0000000003     2     5    10     7
 -0.0000000152     2     6     1     2
 -0.0023878272     2     6     1     3
 -0.0022624012     2     6     1     8
 0.0000000002     2     6     3     1
 0.0007799397     2     6     3     7
 -0.0007021491     2     6     4     9
 -0.0000000061     2     6     4    10
 0.0000000015     2     6     5     9
 0.0028841829     2     6     5    10
 -0.2614632759     2     6     6     2
 0.0000000118     2     6     6     3
 -0.0000000010     2     6     6     8
 0.0000000118     2     6     7     2
 0.0027670687     2     6     7     3
 0.0003310385     2     6     7     8
 -0.0005934891     2     6     8     1
 0.0000000015     2     6     8     7
 0.0001052786     2     6     9     4
 -0.0000000008     2     6     9     5
 -0.0000000002     2     6    10     4
 -0.0002498437     2     6    10     5
 0.0023878287     2     7     1     2
 -0.0000000152     2     7     1     3
 0.0000000070     2     7     1     8
 -0.0007799397     2     7     3     6
 0.0000000091     2     7     4     9
 0.0002074612     2     7     4    10
 -0.0019745674     2     7     5     9
 -0.0000000015     2     7     5    10
 0.0000000118     2     7     6     2
 0.0010241864     2     7     6     3
 0.0003310371     2     7     6     8
 -0.2576720062     2     7     7     2
 -0.0000000118     2     7     7     3
 0.0000000010     2     7     7     8
 0.0000000018     2     7     8     1
 -0.0000000015     2     7     8     6
 -0.0000000008     2     7     9     4
 -0.0000731328     2     7     9     5
 -0.0002176965     2     7    10     4
 0.0000000003     2     7    10     5
 0.0022624012     2     8     1     6
 -0.0000000070     2     8     1     7
 -0.0000000202     2     8     3     2
 -0.0000000030     2     8     4     4
 -0.0009762969     2     8     4     5
 -0.0009762975     2     8     5     4
 0.0000000030     2     8     5     5
 0.0012046000     2     8     6     1
 0.0000000010     2     8     6     6
 -0.0003310371     2     8     6     7
 -0.0000000037     2     8     7     1
 -0.0003310385     2     8     7     6
 -0.0000000010     2     8     7     7
 -0.1892658138     2     8     8     2
 -0.0000000024     2     8     9     9
 0.0009323570     2     8     9    10
 0.0009323554     2     8    10     9
 0.0000000024     2     8    10    10
 -0.0000000087     2     9     1     4
 -0.0030335083     2     9     1     5
 0.0006945201     2     9     3    10
 -0.0000000091     2     9     4     1
 0.0007021491     2     9     4     6
 -0.0000000091     2     9     4     7
 -0.0032064016     2     9     5     1
 -0.0000000015     2     9     5     6
 0.0019745674     2     9     5     7
 0.0012760834     2     9     6     4
 -0.0000000038     2     9     6     5
 -0.0000000139     2     9     7     4
 0.0022442305     2     9     7     5
 0.0000000016     2     9     8    10
 -0.1750975000     2     9     9     2
 -0.0000000332     2     9     9     3
 0.0000000024     2     9     9     8
 -0.0000000332     2     9    10     2
 -0.0045517302     2     9    10     3
 -0.0009323554     2     9    10     8
 0.0030335144     2    10     1     4
 -0.0000000087     2    10     1     5
 -0.0006945201     2    10     3     9
 0.0032064076     2    10     4     1
 0.0000000061     2    10     4     6
 -0.0002074612     2    10     4     7
 -0.0000000091     2    10     5     1
 -0.0028841829     2    10     5     6
 0.0000000015     2    10     5     7
 0.0000000069     2    10     6     4
 -0.0043419855     2    10     6     5
 -0.0008216639     2    10     7     4
 0.0000000032     2    10     7     5
 -0.0000000016     2    10     8     9
 -0.0000000332     2    10     9     2
 -0.0051833067     2    10     9     3
 -0.0009323570     2    10     9     8
 -0.1848325360     2    10    10     2
 0.0000000332     2    10    10     3
 -0.0000000024     2    10    10     8
 -0.2693361658     3     1     1     3
 -0.0000000203     3     1     1     8
 0.0000000002     3     1     2     6
 0.0032064040     3     1     4     9
 0.0000000091     3     1     4    10
 -0.0000000091     3     1     5     9
 0.0032064089     3     1     5    10
 -0.0023878272     3     1     6     2
 0.0000000152     3     1     6     3
 0.0000000037     3     1     6     8
 -0.0000000152     3     1     7     2
 -0.0023878359     3     1     7     3
 0.0012045997     3     1     7     8
 -0.0000000018     3     1     8     6
 -0.0005934902     3     1     8     7
 0.0001247836     3     1     9     4
 -0.0000000004     3     1     9     5
 0.0000000004     3     1    10     4
 0.0001247828     3     1    10     5
 0.0023878274     3     2     1     6
 0.0000000152     3     2     1     7
 -0.2578299490     3     2     2     3
 -0.0000000202     3     2     2     8
 0.0000000109     3     2     4     4
 -0.0013648583     3     2     4     5
 -0.0020837828     3     2     5     4
 -0.0000000109     3     2     5     5
 0.0023878272     3     2     6     1
 -0.0000000118     3     2     6     6
 -0.0027670687     3     2     6     7
 0.0000000152     3     2     7     1
 -0.0010241864     3     2     7     6
 0.0000000118     3     2     7     7
 0.0000000332     3     2     9     9
 0.0045517302     3     2     9    10
 0.0051833067     3     2    10     9
 -0.0000000332     3     2    10    10
 0.2693361658     3     3     1     1
 -0.0000000152     3     3     1     6
 0.0023878359     3     3     1     7
 0.2578299490     3     3     2     2
 0.2686849557     3     3     4     4
 0.0000000109     3     3     4     5
 0.0000000109     3     3     5     4
 0.2652362985     3     3     5     5
 -0.0000000152     3     3     6     1
 0.2576720004     3     3     6     6
 0.0000000118     3     3     6     7
 0.0023878359     3     3     7     1
 0.0000000118     3     3     7     6
 0.2614632550     3     3     7     7
 0.1892658257     3     3     8     8
 0.1848325556     3     3     9     9
 -0.0000000332     3     3     9    10
 -0.0000000332     3     3    10     9
 0.1750974887     3     3    10    10
 0.0030335098     3     4     1     9
 0.0000000087     3     4     1    10
 0.0000716588     3     4     2     5
 -0.0000000109     3     4     4     2
 -0.2686849557     3     4     4     3
 0.0009762762     3     4     4     8
 0.0020837828     3     4     5     2
 -0.0000000109     3     4     5     3
 -0.0000000030     3     4     5     8
 0.0000000032     3     4     6     9
 -0.0022442367     3     4     6    10
 0.0043419814     3     4     7     9
 -0.0000000038     3     4     7    10
 -0.0001247836     3     4     9     1
 0.0000000003     3     4     9     6
 0.0002498453     3     4     9     7
 -0.0000000004     3     4    10     1
 0.0000731322     3     4    10     6
 -0.0000000008     3     4    10     7
 -0.0000000087     3     5     1     9
 0.0030335157     3     5     1    10
 -0.0000716588     3     5     2     4
 0.0013648583     3     5     4     2
 -0.0000000109     3     5     4     3
 -0.0000000030     3     5     4     8
 0.0000000109     3     5     5     2
 -0.2652362985     3     5     5     3
 -0.0009763177     3     5     5     8
 0.0008216656     3     5     6     9
 -0.0000000139     3     5     6    10
 0.0000000069     3     5     7     9
 -0.0012760882     3     5     7    10
 0.0000000004     3     5     9     1
 0.0002176956     3     5     9     6
 -0.0000000002     3     5     9     7
 -0.0001247828     3     5    10     1
 -0.0000000008     3     5    10     6
 -0.0001052789     3     5    10     7
 -0.0023878274     3     6     1     2
 0.0000000152     3     6     1     3
 0.0000000070     3     6     1     8
 -0.0000000002     3     6     2     1
 -0.0007799397     3     6     2     7
 0.0000000015     3     6     4     9
 -0.0019745725     3     6     4    10
 0.0002074636     3     6     5     9
 -0.0000000091     3     6     5    10
 0.0000000118     3     6     6     2
 -0.2576720004     3     6     6     3
 -0.0003310565     3     6     6     8
 0.0010241864     3     6     7     2
 -0.0000000118     3     6     7     3
 -0.0000000010     3     6     7     8
 0.0000000018     3     6     8     1
 -0.0000000003     3     6     9     4
 -0.0002176956     3     6     9     5
 -0.0000731322     3     6    10     4
 0.0000000008     3     6    10     5
 -0.0000000152     3     7     1     2
 -0.0023878359     3     7     1     3
 0.0022624022     3     7     1     8
 0.0007799397     3     7     2     6
 0.0028841768     3     7     4     9
 -0.0000000015     3     7     4    10
 0.0000000061     3     7     5     9
 -0.0007021535     3     7     5    10
 0.0027670687     3     7     6     2
 -0.0000000118     3     7     6     3
 -0.0000000010     3     7     6     8
 -0.0000000118     3     7     7     2
 -0.2614632550     3     7     7     3
 0.0003310200     3     7     7     8
 0.0005934902     3     7     8     1
 -0.0002498453     3     7     9     4
 0.0000000002     3     7     9     5
 0.0000000008     3     7    10     4
 0.0001052789     3     7    10     5
 0.0000000203     3     8     1     1
 -0.0000000070     3     8     1     6
 -0.0022624022     3     8     1     7
 0.0000000202     3     8     2     2
 -0.0009762762     3     8     4     4
 0.0000000030     3     8     4     5
 0.0000000030     3     8     5     4
 0.0009763177     3     8     5     5
 -0.0000000037     3     8     6     1
 0.0003310565     3     8     6     6
 0.0000000010     3     8     6     7
 -0.0012045997     3     8     7     1
 0.0000000010     3     8     7     6
 -0.0003310200     3     8     7     7
 -0.1892658257     3     8     8     3
 -0.0009323464     3     8     9     9
 -0.0000000024     3     8     9    10
 -0.0000000024     3     8    10     9
 0.0009323683     3     8    10    10
 -0.0030335098     3     9     1     4
 0.0000000087     3     9     1     5
 -0.0006945201     3     9     2    10
 -0.0032064040     3     9     4     1
 -0.0000000015     3     9     4     6
 -0.0028841768     3     9     4     7
 0.0000000091     3     9     5     1
 -0.0002074636     3     9     5     6
 -0.0000000061     3     9     5     7
 -0.0000000032     3     9     6     4
 -0.0008216656     3     9     6     5
 -0.0043419814     3     9     7     4
 -0.0000000069     3     9     7     5
 -0.0000000332     3     9     9     2
 -0.1848325556     3     9     9     3
 0.0009323464     3     9     9     8
 -0.0051833067     3     9    10     2
 0.0000000332     3     9    10     3
 0.0000000024     3     9    10     8
 -0.0000000087     3    10     1     4
 -0.0030335157     3    10     1     5
 0.0006945201     3    10     2     9
 -0.0000000091     3    10     4     1
 0.0019745725     3    10     4     6
 0.0000000015     3    10     4     7
 -0.0032064089     3    10     5     1
 0.0000000091     3    10     5     6
 0.0007021535     3    10     5     7
 0.0022442367     3    10     6     4
 0.0000000139     3    10     6     5
 0.0000000038     3    10     7     4
 0.0012760882     3    10     7     5
 -0.0045517302     3    10     9     2
 0.0000000332     3    10     9     3
 0.0000000024     3    10     9     8
 0.0000000332     3    10    10     2
 -0.1750974887     3    10    10     3
 -0.0009323683     3    10    10     8
 -0.2140812145     4     1     1     4
 -0.0000000091     4     1     2     9
 0.0032064076     4     1     2    10
 -0.0032064040     4     1     3     9
 -0.0000000091     4     1     3    10
 -0.0000000144     4     1     5     6
 0.0000000001     4     1     6     4
 -0.0268599567     4     1     6     5
 0.0268599532     4     1     7     4
 0.0000000001     4     1     7     5
 -0.0377201755     4     1     8     9
 0.0000000092     4     1     8    10
 -0.0000000087     4     1     9     2
 -0.0030335098     4     1     9     3
 -0.0379882110     4     1     9     8
 0.0030335144     4     1    10     2
 -0.0000000087     4     1    10     3
 0.0000000092     4     1    10     8
 -0.0000000004     4     2     1     9
 0.0001247829     4     2     1    10
 -0.2652363250     4     2     2     4
 0.0000000109     4     2     2     5
 -0.0000000109     4     2     3     4
 0.0013648583     4     2     3     5
 -0.0000716588     4     2     5     3
 0.0000000006     4     2     5     8
 -0.0001052786     4     2     6     9
 0.0000000002     4     2     6    10
 0.0000000008     4     2     7     9
 0.0002176965     4     2     7    10
 0.0000000030     4     2     8     4
 0.0009762975     4     2     8     5
 0.0000000087     4     2     9     1
 -0.0012760834     4     2     9     6
 0.0000000139     4     2     9     7
 -0.0030335144     4     2    10     1
 -0.0000000069     4     2    10     6
 0.0008216639     4     2    10     7
 -0.0001247836     4     3     1     9
 -0.0000000004     4     3     1    10
 -0.0000000109     4     3     2     4
 0.0020837828     4     3     2     5
 -0.2686849557     4     3     3     4
 -0.0000000109     4     3     3     5
 0.0000716588     4     3     5     2
 0.0000000003     4     3     6     9
 0.0000731322     4     3     6    10
 0.0002498453     4     3     7     9
 -0.0000000008     4     3     7    10
 0.0009762762     4     3     8     4
 -0.0000000030     4     3     8     5
 0.0030335098     4     3     9     1
 0.0000000032     4     3     9     6
 0.0043419814     4     3     9     7
 0.0000000087     4     3    10     1
 -0.0022442367     4     3    10     6
 -0.0000000038     4     3    10     7
 0.2140812145     4     4     1     1
 -0.0000000001     4     4     1     6
 -0.0268599532     4     4     1     7
 0.2652363250     4     4     2     2
 0.0000000109     4     4     2     3
 -0.0000000030     4     4     2     8
 0.0000000109     4     4     3     2
 0.2686849557     4     4     3     3
 -0.0009762762     4     4     3     8
 0.2505467336     4     4     5     5
 -0.0000000001     4     4     6     1
 0.2299582166     4     4     6     6
 -0.0000000006     4     4     6     7
 -0.0268599532     4     4     7     1
 -0.0000000006     4     4     7     6
 0.2390058166     4     4     7     7
 -0.0000000030     4     4     8     2
 -0.0009762762     4     4     8     3
 0.1877379545     4     4     8     8
 0.1844909559     4     4     9     9
 -0.0000000037     4     4     9    10
 -0.0000000037     4     4    10     9
 0.1693096829     4     4    10    10
 0.0268599430     4     5     1     6
 -0.0000000001     4     5     1     7
 -0.0000000109     4     5     2     2
 -0.0020837828     4     5     2     3
 -0.0009762969     4     5     2     8
 -0.0013648583     4     5     3     2
 0.0000000109     4     5     3     3
 0.0000000030     4     5     3     8
 -0.2505467336     4     5     5     4
 0.0268599567     4     5     6     1
 -0.0000000006     4     5     6     6
 0.0279290358     4     5     6     7
 -0.0000000001     4     5     7     1
 -0.0188814268     4     5     7     6
 0.0000000006     4     5     7     7
 -0.0009762975     4     5     8     2
 0.0000000030     4     5     8     3
 -0.0000000037     4     5     9     9
 -0.0077541715     4     5     9    10
 -0.0074270871     4     5    10     9
 0.0000000037     4     5    10    10
 0.0000000001     4     6     1     4
 -0.0268599430     4     6     1     5
 0.0007021491     4     6     2     9
 0.0000000061     4     6     2    10
 -0.0000000015     4     6     3     9
 0.0019745725     4     6     3    10
 0.0000000144     4     6     5     1
 0.0455877492     4     6     5     7
 -0.2299582166     4     6     6     4
 0.0000000006     4     6     6     5
 0.0000000006     4     6     7     4
 0.0188814268     4     6     7     5
 -0.0000000062     4     6     8     9
 -0.0251560382     4     6     8    10
 0.0012760834     4     6     9     2
 -0.0000000032     4     6     9     3
 -0.0000000061     4     6     9     8
 0.0000000069     4     6    10     2
 0.0022442367     4     6    10     3
 -0.0249283862     4     6    10     8
 0.0268599532     4     7     1     4
 0.0000000001     4     7     1     5
 -0.0000000091     4     7     2     9
 -0.0002074612     4     7     2    10
 -0.0028841768     4     7     3     9
 0.0000000015     4     7     3    10
 -0.0455877492     4     7     5     6
 0.0000000006     4     7     6     4
 -0.0279290358     4     7     6     5
 -0.2390058166     4     7     7     4
 -0.0000000006     4     7     7     5
 -0.0251560617     4     7     8     9
 0.0000000062     4     7     8    10
 -0.0000000139     4     7     9     2
 -0.0043419814     4     7     9     3
 -0.0249284094     4     7     9     8
 -0.0008216639     4     7    10     2
 0.0000000038     4     7    10     3
 0.0000000061     4     7    10     8
 0.0002891688     4     8     1     9
 -0.0000000001     4     8     1    10
 0.0000000030     4     8     2     4
 0.0009762969     4     8     2     5
 0.0009762762     4     8     3     4
 -0.0000000030     4     8     3     5
 -0.0000000006     4     8     5     2
 -0.0000000001     4     8     6     9
 -0.0001181858     4     8     6    10
 -0.0001181862     4     8     7     9
 0.0000000001     4     8     7    10
 -0.1877379545     4     8     8     4
 0.0379882110     4     8     9     1
 0.0000000061     4     8     9     6
 0.0249284094     4     8     9     7
 -0.0000000092     4     8    10     1
 0.0249283862     4     8    10     6
 -0.0000000061     4     8    10     7
 0.0000000004     4     9     1     2
 0.0001247836     4     9     1     3
 -0.0002891688     4     9     1     8
 0.0000000091     4     9     2     1
 -0.0007021491     4     9     2     6
 0.0000000091     4     9     2     7
 0.0032064040     4     9     3     1
 0.0000000015     4     9     3     6
 0.0028841768     4     9     3     7
 -0.0002663341     4     9     5    10
 0.0001052786     4     9     6     2
 -0.0000000003     4     9     6     3
 0.0000000001     4     9     6     8
 -0.0000000008     4     9     7     2
 -0.0002498453     4     9     7     3
 0.0001181862     4     9     7     8
 0.0377201755     4     9     8     1
 0.0000000062     4     9     8     6
 0.0251560617     4     9     8     7
 -0.1844909559     4     9     9     4
 0.0000000037     4     9     9     5
 0.0000000037     4     9    10     4
 0.0074270871     4     9    10     5
 -0.0001247829     4    10     1     2
 0.0000000004     4    10     1     3
 0.0000000001     4    10     1     8
 -0.0032064076     4    10     2     1
 -0.0000000061     4    10     2     6
 0.0002074612     4    10     2     7
 0.0000000091     4    10     3     1
 -0.0019745725     4    10     3     6
 -0.0000000015     4    10     3     7
 0.0002663341     4    10     5     9
 -0.0000000002     4    10     6     2
 -0.0000731322     4    10     6     3
 0.0001181858     4    10     6     8
 -0.0002176965     4    10     7     2
 0.0000000008     4    10     7     3
 -0.0000000001     4    10     7     8
 -0.0000000092     4    10     8     1
 0.0251560382     4    10     8     6
 -0.0000000062     4    10     8     7
 0.0000000037     4    10     9     4
 0.0077541715     4    10     9     5
 -0.1693096829     4    10    10     4
 -0.0000000037     4    10    10     5
 -0.2140812446     5     1     1     5
 -0.0032064016     5     1     2     9
 -0.0000000091     5     1     2    10
 0.0000000091     5     1     3     9
 -0.0032064089     5     1     3    10
 0.0000000144     5     1     4     6
 -0.0268599430     5     1     6     4
 -0.0000000001     5     1     6     5
 0.0000000001     5     1     7     4
 -0.0268599400     5     1     7     5
 0.0000000092     5     1     8     9
 0.0377201328     5     1     8    10
 -0.0030335083     5     1     9     2
 0.0000000087     5     1     9     3
 0.0000000092     5     1     9     8