&FCI NORB= 19,NELEC= 14,MS2=0,
 ORBSYM=1,1,1,1,1,1,1,1,1,1,1,1,1,1,1,1,1,1,1
 ISYM=1,
&END
 0.4030604058     1     1     2     2
 0.0043969724     1     1     2     4
 0.0068158158     1     1     2    10
 -0.0130316583     1     1     2    14
 -0.0020371119     1     1     2    18
 0.7131526770     1     1     3     3
 0.0000000001     1     1     3     4
 0.0722614228     1     1     3     5
 -0.0000000001     1     1     3    10
 0.0541397021     1     1     3    11
 0.1434257659     1     1     3    15
 0.0043969724     1     1     4     2
 0.0000000001     1     1     4     3
 0.6240381620     1     1     4     4
 -0.0000000001     1     1     4     5
 -0.0891584511     1     1     4    10
 -0.1073759968     1     1     4    14
 0.1274745051     1     1     4    18
 0.0722614228     1     1     5     3
 -0.0000000001     1     1     5     4
 0.6539713528     1     1     5     5
 0.1878843386     1     1     5    11
 0.0000000001     1     1     5    14
 -0.0863914435     1     1     5    15
 0.6216975916     1     1     6     6
 -0.0000000001     1     1     6     8
 0.2158755391     1     1     6    12
 0.0137772850     1     1     6    13
 -0.0045545248     1     1     6    19
 0.6216975916     1     1     7     7
 -0.0000000001     1     1     7     9
 -0.0137772850     1     1     7    12
 0.2158755391     1     1     7    13
 -0.0034555346     1     1     7    19
 -0.0000000001     1     1     8     6
 0.6072248019     1     1     8     8
 -0.1549169352     1     1     8    16
 -0.1766349039     1     1     8    17
 -0.0000000001     1     1     9     7
 0.6072248019     1     1     9     9
 0.1766349039     1     1     9    16
 -0.1549169352     1     1     9    17
 0.0068158158     1     1    10     2
 -0.0000000001     1     1    10     3
 -0.0891584511     1     1    10     4
 0.5456651886     1     1    10    10
 -0.2162888360     1     1    10    14
 -0.1367116373     1     1    10    18
 0.0541397021     1     1    11     3
 0.1878843386     1     1    11     5
 0.5001313453     1     1    11    11
 0.0000000001     1     1    11    14
 0.0099000522     1     1    11    15
 0.2158755391     1     1    12     6
 -0.0137772850     1     1    12     7
 0.5813113403     1     1    12    12
 0.0000000001     1     1    12    16
 0.0247034670     1     1    12    19
 0.0137772850     1     1    13     6
 0.2158755391     1     1    13     7
 0.5813113403     1     1    13    13
 0.0000000001     1     1    13    17
 0.0213531354     1     1    13    19
 -0.0130316583     1     1    14     2
 -0.1073759968     1     1    14     4
 0.0000000001     1     1    14     5
 -0.2162888360     1     1    14    10
 0.0000000001     1     1    14    11
 0.6462914795     1     1    14    14
 0.0325351074     1     1    14    18
 0.1434257659     1     1    15     3
 -0.0863914435     1     1    15     5
 0.0099000522     1     1    15    11
 0.5311578740     1     1    15    15
 0.0000000001     1     1    15    18
 -0.1549169352     1     1    16     8
 0.1766349039     1     1    16     9
 0.0000000001     1     1    16    12
 0.5756398859     1     1    16    16
 -0.1766349039     1     1    17     8
 -0.1549169352     1     1    17     9
 0.0000000001     1     1    17    13
 0.5756398859     1     1    17    17
 -0.0020371119     1     1    18     2
 0.1274745051     1     1    18     4
 -0.1367116373     1     1    18    10
 0.0325351074     1     1    18    14
 0.0000000001     1     1    18    15
 0.5120133919     1     1    18    18
 -0.0045545248     1     1    19     6
 -0.0034555346     1     1    19     7
 0.0247034670     1     1    19    12
 0.0213531354     1     1    19    13
 0.5958718322     1     1    19    19
 -0.4030604058     1     2     2     1
 -0.0050431798     1     2     2     3
 -0.0114381587     1     2     2     5
 -0.0094146811     1     2     2    11
 0.0016979188     1     2     2    15
 -0.1950828812     1     2     3     4
 0.1614903928     1     2     3    10
 -0.0779361563     1     2     3    14
 -0.1311844202     1     2     3    18
 -0.0043969724     1     2     4     1
 -0.1951953629     1     2     4     3
 0.2243465163     1     2     4     5
 0.0613605680     1     2     4    11
 -0.1490674845     1     2     4    15
 0.2245994758     1     2     5     4
 0.1314628744     1     2     5    10
 -0.2359962939     1     2     5    14
 0.0027411292     1     2     5    18
 0.2276800388     1     2     6     8
 -0.1031386970     1     2     6     9
 -0.1592137148     1     2     6    16
 -0.0721464890     1     2     6    17
 0.1031386970     1     2     7     8
 0.2276800388     1     2     7     9
 0.0721464890     1     2     7    16
 -0.1592137148     1     2     7    17
 0.2274276437     1     2     8     6
 0.1030243624     1     2     8     7
 0.1526635771     1     2     8    12
 0.0812483623     1     2     8    13
 0.1064050852     1     2     8    19
 -0.1030243624     1     2     9     6
 0.2274276437     1     2     9     7
 -0.0812483623     1     2     9    12
 0.1526635771     1     2     9    13
 0.0242083775     1     2     9    19
 -0.0068158158     1     2    10     1
 0.1613177789     1     2    10     3
 0.1310794962     1     2    10     5
 0.0156597694     1     2    10    11
 0.0560626110     1     2    10    15
 0.0615748208     1     2    11     4
 0.0159841411     1     2    11    10
 -0.2054146331     1     2    11    14
 -0.0215568633     1     2    11    18
 0.1529384661     1     2    12     8
 -0.0813946596     1     2    12     9
 -0.2383802301     1     2    12    16
 -0.0901981404     1     2    12    17
 0.0813946596     1     2    13     8
 0.1529384661     1     2    13     9
 0.0901981404     1     2    13    16
 -0.2383802301     1     2    13    17
 0.0130316583     1     2    14     1
 -0.0776047468     1     2    14     3
 -0.2352573625     1     2    14     5
 -0.2047887754     1     2    14    11
 0.1084012933     1     2    14    15
 -0.1490988907     1     2    15     4
 0.0560155971     1     2    15    10
 0.1084917555     1     2    15    14
 -0.1619604563     1     2    15    18
 -0.1589145476     1     2    16     6
 0.0720109237     1     2    16     7
 -0.2380347739     1     2    16    12
 0.0900674269     1     2    16    13
 -0.0208116444     1     2    16    19
 -0.0720109237     1     2    17     6
 -0.1589145476     1     2    17     7
 -0.0900674269     1     2    17    12
 -0.2380347739     1     2    17    13
 -0.0384342294     1     2    17    19
 0.0020371119     1     2    18     1
 -0.1311330926     1     2    18     3
 0.0028540356     1     2    18     5
 -0.0214613251     1     2    18    11
 -0.1619737181     1     2    18    15
 0.1064133720     1     2    19     8
 0.0242102628     1     2    19     9
 -0.0208165313     1     2    19    16
 -0.0384432542     1     2    19    17
 0.0050431798     1     3     2     2
 0.0001124817     1     3     2     4
 0.0001726139     1     3     2    10
 -0.0003314095     1     3     2    14
 -0.0000513276     1     3     2    18
 -0.7131526770     1     3     3     1
 -0.0155900091     1     3     3     5
 -0.0153560127     1     3     3    11
 0.0051057191     1     3     3    15
 -0.0000000001     1     3     4     1
 0.1951953629     1     3     4     2
 -0.0062438529     1     3     4     4
 -0.0059512240     1     3     4    10
 0.0119824583     1     3     4    14
 -0.0002815912     1     3     4    18
 -0.0722614228     1     3     5     1
 -0.0230420532     1     3     5     5
 -0.0174790670     1     3     5    11
 0.0099858963     1     3     5    15
 -0.0162227821     1     3     6     6
 -0.0220804021     1     3     6    12
 -0.0014091823     1     3     6    13
 -0.0071694193     1     3     6    19
 -0.0162227821     1     3     7     7
 0.0014091823     1     3     7    12
 -0.0220804021     1     3     7    13
 -0.0054394646     1     3     7    19
 -0.0158118352     1     3     8     8
 0.0125728850     1     3     8    16
 0.0143354910     1     3     8    17
 -0.0158118352     1     3     9     9
 -0.0143354910     1     3     9    16
 0.0125728850     1     3     9    17
 0.0000000001     1     3    10     1
 -0.1613177789     1     3    10     2
 -0.0085178357     1     3    10     4
 -0.0036125441     1     3    10    10
 0.0113084572     1     3    10    14
 -0.0018053812     1     3    10    18
 -0.0541397021     1     3    11     1
 -0.0126826632     1     3    11     5
 -0.0112231012     1     3    11    11
 0.0077729559     1     3    11    15
 -0.0133360817     1     3    12     6
 0.0008511154     1     3    12     7
 -0.0167737724     1     3    12    12
 -0.0045674335     1     3    12    19
 -0.0008511154     1     3    13     6
 -0.0133360817     1     3    13     7
 -0.0167737724     1     3    13    13
 -0.0039479895     1     3    13    19
 0.0776047468     1     3    14     2
 0.0136661705     1     3    14     4
 0.0063450610     1     3    14    10
 -0.0228212628     1     3    14    14
 0.0029882332     1     3    14    18
 -0.1434257659     1     3    15     1
 0.0024106731     1     3    15     5
 0.0019920552     1     3    15    11
 -0.0008031186     1     3    15    15
 0.0093846290     1     3    16     8
 -0.0107002701     1     3    16     9
 -0.0178836700     1     3    16    16
 0.0107002701     1     3    17     8
 0.0093846290     1     3    17     9
 -0.0178836700     1     3    17    17
 0.1311330926     1     3    18     2
 0.0018831089     1     3    18     4
 0.0002440426     1     3    18    10
 -0.0023981063     1     3    18    14
 0.0009115678     1     3    18    18
 -0.0024207601     1     3    19     6
 -0.0018366395     1     3    19     7
 -0.0006813203     1     3    19    12
 -0.0005889184     1     3    19    13
 -0.0010380791     1     3    19    19
 -0.0043969724     1     4     2     1
 -0.0001124817     1     4     2     3
 -0.0002529595     1     4     2     5
 -0.0002142528     1     4     2    11
 0.0000314062     1     4     2    15
 -0.0000000001     1     4     3     1
 0.1950828812     1     4     3     2
 0.0025666117     1     4     3    10
 -0.0016837122     1     4     3    14
 -0.0021647001     1     4     3    18
 -0.6240381620     1     4     4     1
 0.0062438529     1     4     4     3
 0.0029602909     1     4     4     5
 0.0066349626     1     4     4    11
 0.0008270798     1     4     4    15
 0.0000000001     1     4     5     1
 -0.2245994758     1     4     5     2
 0.0152765042     1     4     5    10
 -0.0250594617     1     4     5    14
 -0.0083640892     1     4     5    18
 0.0134022875     1     4     6     8
 -0.0060712150     1     4     6     9
 -0.0178362075     1     4     6    16
 -0.0080823424     1     4     6    17
 0.0060712150     1     4     7     8
 0.0134022875     1     4     7     9
 0.0080823424     1     4     7    16
 -0.0178362075     1     4     7    17
 0.0152886227     1     4     8     6
 0.0069257218     1     4     8     7
 0.0198844849     1     4     8    12
 0.0105826278     1     4     8    13
 0.0031368552     1     4     8    19
 -0.0069257218     1     4     9     6
 0.0152886227     1     4     9     7
 -0.0105826278     1     4     9    12
 0.0198844849     1     4     9    13
 0.0007136706     1     4     9    19
 0.0891584511     1     4    10     1
 0.0085178357     1     4    10     3
 0.0107338274     1     4    10     5
 0.0121160106     1     4    10    11
 0.0003053354     1     4    10    15
 -0.0615748208     1     4    11     2
 0.0098174052     1     4    11    10
 -0.0109467097     1     4    11    14
 -0.0053803579     1     4    11    18
 0.0123607370     1     4    12     8
 -0.0065784495     1     4    12     9
 -0.0155683456     1     4    12    16
 -0.0058907394     1     4    12    17
 0.0065784495     1     4    13     8
 0.0123607370     1     4    13     9
 0.0058907394     1     4    13    16
 -0.0155683456     1     4    13    17
 0.1073759968     1     4    14     1
 -0.0136661705     1     4    14     3
 -0.0153300430     1     4    14     5
 -0.0151147608     1     4    14    11
 -0.0031390721     1     4    14    15
 0.1490988907     1     4    15     2
 -0.0039303881     1     4    15    10
 0.0053305622     1     4    15    14
 0.0023743577     1     4    15    18
 -0.0127226198     1     4    16     6
 0.0057651588     1     4    16     7
 -0.0158984230     1     4    16    12
 0.0060156339     1     4    16    13
 -0.0015410077     1     4    16    19
 -0.0057651588     1     4    17     6
 -0.0127226198     1     4    17     7
 -0.0060156339     1     4    17    12
 -0.0158984230     1     4    17    13
 -0.0028458799     1     4    17    19
 -0.1274745051     1     4    18     1
 -0.0018831089     1     4    18     3
 -0.0030182538     1     4    18     5
 -0.0023440881     1     4    18    11
 0.0002171372     1     4    18    15
 0.0047780687     1     4    19     8
 0.0010870655     1     4    19     9
 -0.0037906620     1     4    19    16
 -0.0070004643     1     4    19    17
 0.0114381587     1     5     2     2
 0.0002529595     1     5     2     4
 0.0003833782     1     5     2    10
 -0.0007389314     1     5     2    14
 -0.0001129064     1     5     2    18
 -0.0722614228     1     5     3     1
 0.0155900091     1     5     3     3
 -0.0047964038     1     5     3    11
 0.0075752232     1     5     3    15
 0.0000000001     1     5     4     1
 -0.2243465163     1     5     4     2
 -0.0029602909     1     5     4     4
 0.0045426768     1     5     4    10
 -0.0097294187     1     5     4    14
 -0.0053458354     1     5     4    18
 -0.6539713528     1     5     5     1
 0.0230420532     1     5     5     3
 0.0070917912     1     5     5    11
 0.0136919606     1     5     5    15
 0.0113849729     1     5     6     6
 0.0087699340     1     5     6    12
 0.0005597016     1     5     6    13
 -0.0061088091     1     5     6    19
 0.0113849729     1     5     7     7
 -0.0005597016     1     5     7    12
 0.0087699340     1     5     7    13
 -0.0046347758     1     5     7    19
 0.0090208515     1     5     8     8
 -0.0072418387     1     5     8    16
 -0.0082570797     1     5     8    17
 0.0090208515     1     5     9     9
 0.0082570797     1     5     9    16
 -0.0072418387     1     5     9    17
 -0.1310794962     1     5    10     2
 -0.0107338274     1     5    10     4
 0.0121977304     1     5    10    10
 -0.0103521714     1     5    10    14
 -0.0112949053     1     5    10    18
 -0.1878843386     1     5    11     1
 0.0126826632     1     5    11     3
 0.0017819498     1     5    11    11
 0.0137383124     1     5    11    15
 0.0060944140     1     5    12     6
 -0.0003889486     1     5    12     7
 0.0088370498     1     5    12    12
 -0.0023054216     1     5    12    19
 0.0003889486     1     5    13     6
 0.0060944140     1     5    13     7
 0.0088370498     1     5    13    13
 -0.0019927559     1     5    13    19
 -0.0000000001     1     5    14     1
 0.2352573625     1     5    14     2
 0.0153300430     1     5    14     4
 -0.0186655503     1     5    14    10
 0.0097765164     1     5    14    14
 0.0175771151     1     5    14    18
 0.0863914435     1     5    15     1
 -0.0024106731     1     5    15     3
 -0.0002455457     1     5    15    11
 0.0013626787     1     5    15    15
 -0.0043567932     1     5    16     8
 0.0049675766     1     5    16     9
 0.0079898867     1     5    16    16
 -0.0049675766     1     5    17     8
 -0.0043567932     1     5    17     9
 0.0079898867     1     5    17    17
 -0.0028540356     1     5    18     2
 0.0030182538     1     5    18     4
 -0.0042380989     1     5    18    10
 0.0013210967     1     5    18    14
 0.0055034551     1     5    18    18
 -0.0000037848     1     5    19     6
 -0.0000028716     1     5    19     7
 0.0058523937     1     5    19    12
 0.0050586808     1     5    19    13
 0.0078071372     1     5    19    19
 0.0002523951     1     6     2     8
 -0.0001143346     1     6     2     9
 -0.0002991672     1     6     2    16
 -0.0001355653     1     6     2    17
 -0.0087443204     1     6     3    12
 -0.0005580669     1     6     3    13
 -0.0047486592     1     6     3    19
 -0.0018863352     1     6     4     8
 0.0008545068     1     6     4     9
 -0.0051135877     1     6     4    16
 -0.0023171836     1     6     4    17
 0.0026755200     1     6     5    12
 0.0001707530     1     6     5    13
 -0.0061050243     1     6     5    19
 -0.6216975916     1     6     6     1
 0.0162227821     1     6     6     3
 -0.0113849729     1     6     6     5
 -0.0085015076     1     6     6    11
 0.0085992126     1     6     6    15
 0.0000000001     1     6     8     1
 -0.2274276437     1     6     8     2
 -0.0152886227     1     6     8     4
 0.0115654859     1     6     8    10
 -0.0047617103     1     6     8    14
 -0.0082745639     1     6     8    18
 0.1030243624     1     6     9     2
 0.0069257218     1     6     9     4
 -0.0052391468     1     6     9    10
 0.0021570473     1     6     9    14
 0.0037483644     1     6     9    18
 0.0002378405     1     6    10     8
 -0.0001077414     1     6    10     9
 0.0016979594     1     6    10    16
 0.0007694175     1     6    10    17
 0.0032448007     1     6    11    12
 0.0002070848     1     6    11    13
 -0.0005399695     1     6    11    19
 -0.2158755391     1     6    12     1
 0.0133360817     1     6    12     3
 -0.0060944140     1     6    12     5
 -0.0028975586     1     6    12    11
 0.0154425029     1     6    12    15
 -0.0137772850     1     6    13     1
 0.0008511154     1     6    13     3
 -0.0003889486     1     6    13     5
 -0.0001849237     1     6    13    11
 0.0009855483     1     6    13    15
 0.0000054482     1     6    14     8
 -0.0000024680     1     6    14     9
 -0.0018188808     1     6    14    16
 -0.0008242121     1     6    14    17
 0.0052136111     1     6    15    12
 0.0003327353     1     6    15    13
 0.0016432326     1     6    15    19
 0.1589145476     1     6    16     2
 0.0127226198     1     6    16     4
 -0.0096907856     1     6    16    10
 -0.0008931371     1     6    16    14
 0.0135333694     1     6    16    18
 0.0720109237     1     6    17     2
 0.0057651588     1     6    17     4
 -0.0043913061     1     6    17    10
 -0.0004047184     1     6    17    14
 0.0061325438     1     6    17    18
 0.0007498274     1     6    18     8
 -0.0003396706     1     6    18     9
 0.0029604041     1     6    18    16
 0.0013414847     1     6    18    17
 0.0045545248     1     6    19     1
 0.0024207601     1     6    19     3
 0.0000037848     1     6    19     5
 0.0055500295     1     6    19    11
 0.0023038847     1     6    19    15
 0.0001143346     1     7     2     8
 0.0002523951     1     7     2     9
 0.0001355653     1     7     2    16
 -0.0002991672     1     7     2    17
 0.0005580669     1     7     3    12
 -0.0087443204     1     7     3    13
 -0.0036028251     1     7     3    19
 -0.0008545068     1     7     4     8
 -0.0018863352     1     7     4     9
 0.0023171836     1     7     4    16
 -0.0051135877     1     7     4    17
 -0.0001707530     1     7     5    12
 0.0026755200     1     7     5    13
 -0.0046319042     1     7     5    19
 -0.6216975916     1     7     7     1
 0.0162227821     1     7     7     3
 -0.0113849729     1     7     7     5
 -0.0085015076     1     7     7    11
 0.0085992126     1     7     7    15
 -0.1030243624     1     7     8     2
 -0.0069257218     1     7     8     4
 0.0052391468     1     7     8    10
 -0.0021570473     1     7     8    14
 -0.0037483644     1     7     8    18
 0.0000000001     1     7     9     1
 -0.2274276437     1     7     9     2
 -0.0152886227     1     7     9     4
 0.0115654859     1     7     9    10
 -0.0047617103     1     7     9    14
 -0.0082745639     1     7     9    18
 0.0001077414     1     7    10     8
 0.0002378405     1     7    10     9
 -0.0007694175     1     7    10    16
 0.0016979594     1     7    10    17
 -0.0002070848     1     7    11    12
 0.0032448007     1     7    11    13
 -0.0004096769     1     7    11    19
 0.0137772850     1     7    12     1
 -0.0008511154     1     7    12     3
 0.0003889486     1     7    12     5
 0.0001849237     1     7    12    11
 -0.0009855483     1     7    12    15
 -0.2158755391     1     7    13     1
 0.0133360817     1     7    13     3
 -0.0060944140     1     7    13     5
 -0.0028975586     1     7    13    11
 0.0154425029     1     7    13    15
 0.0000024680     1     7    14     8
 0.0000054482     1     7    14     9
 0.0008242121     1     7    14    16
 -0.0018188808     1     7    14    17
 -0.0003327353     1     7    15    12
 0.0052136111     1     7    15    13
 0.0012467266     1     7    15    19
 -0.0720109237     1     7    16     2
 -0.0057651588     1     7    16     4
 0.0043913061     1     7    16    10
 0.0004047184     1     7    16    14
 -0.0061325438     1     7    16    18
 0.1589145476     1     7    17     2
 0.0127226198     1     7    17     4
 -0.0096907856     1     7    17    10
 -0.0008931371     1     7    17    14
 0.0135333694     1     7    17    18
 0.0003396706     1     7    18     8
 0.0007498274     1     7    18     9
 -0.0013414847     1     7    18    16
 0.0029604041     1     7    18    17
 0.0034555346     1     7    19     1
 0.0018366395     1     7    19     3
 0.0000028716     1     7    19     5
 0.0042108277     1     7    19    11
 0.0017479658     1     7    19    15
 -0.0002523951     1     8     2     6
 -0.0001143346     1     8     2     7
 -0.0002748890     1     8     2    12
 -0.0001462973     1     8     2    13
 -0.0000082868     1     8     2    19
 0.0031882560     1     8     3    16
 0.0036352209     1     8     3    17
 0.0018863352     1     8     4     6
 0.0008545068     1     8     4     7
 0.0075237479     1     8     4    12
 0.0040041783     1     8     4    13
 -0.0016412135     1     8     4    19
 -0.0028850455     1     8     5    16
 -0.0032895031     1     8     5    17
 0.0000000001     1     8     6     1
 -0.2276800388     1     8     6     2
 -0.0134022875     1     8     6     4
 0.0113276454     1     8     6    10
 -0.0047671585     1     8     6    14
 -0.0090243913     1     8     6    18
 -0.1031386970     1     8     7     2
 -0.0060712150     1     8     7     4
 0.0051314054     1     8     7    10
 -0.0021595153     1     8     7    14
 -0.0040880350     1     8     7    18
 -0.6072248019     1     8     8     1
 0.0158118352     1     8     8     3
 -0.0090208515     1     8     8     5
 -0.0036076493     1     8     8    11
 0.0102034633     1     8     8    15
 -0.0002378405     1     8    10     6
 -0.0001077414     1     8    10     7
 -0.0026372478     1     8    10    12
 -0.0014035573     1     8    10    13
 -0.0041872563     1     8    10    19
 -0.0003414630     1     8    11    16
 -0.0003893331     1     8    11    17
 -0.1529384661     1     8    12     2
 -0.0123607370     1     8    12     4
 0.0090771748     1     8    12    10
 0.0001771614     1     8    12    14
 -0.0121699356     1     8    12    18
 -0.0813946596     1     8    13     2
 -0.0065784495     1     8    13     4
 0.0048309203     1     8    13    10
 0.0000942863     1     8    13    14
 -0.0064769040     1     8    13    18
 -0.0000054482     1     8    14     6
 -0.0000024680     1     8    14     7
 0.0013094086     1     8    14    12
 0.0006968742     1     8    14    13
 0.0047330773     1     8    14    19
 -0.0009161702     1     8    15    16
 -0.0010446091     1     8    15    17
 0.1549169352     1     8    16     1
 -0.0093846290     1     8    16     3
 0.0043567932     1     8    16     5
 0.0027594282     1     8    16    11
 -0.0093454602     1     8    16    15
 0.1766349039     1     8    17     1
 -0.0107002701     1     8    17     3
 0.0049675766     1     8    17     5
 0.0031462755     1     8    17    11
 -0.0106556101     1     8    17    15
 -0.0007498274     1     8    18     6
 -0.0003396706     1     8    18     7
 -0.0024169061     1     8    18    12
 -0.0012862902     1     8    18    13
 0.0008669215     1     8    18    19
 -0.1064133720     1     8    19     2
 -0.0047780687     1     8    19     4
 0.0035923781     1     8    19    10
 -0.0046148630     1     8    19    14
 -0.0032995798     1     8    19    18
 0.0001143346     1     9     2     6
 -0.0002523951     1     9     2     7
 0.0001462973     1     9     2    12
 -0.0002748890     1     9     2    13
 -0.0000018853     1     9     2    19
 -0.0036352209     1     9     3    16
 0.0031882560     1     9     3    17
 -0.0008545068     1     9     4     6
 0.0018863352     1     9     4     7
 -0.0040041783     1     9     4    12
 0.0075237479     1     9     4    13
 -0.0003733949     1     9     4    19
 0.0032895031     1     9     5    16
 -0.0028850455     1     9     5    17
 0.1031386970     1     9     6     2
 0.0060712150     1     9     6     4
 -0.0051314054     1     9     6    10
 0.0021595153     1     9     6    14
 0.0040880350     1     9     6    18
 0.0000000001     1     9     7     1
 -0.2276800388     1     9     7     2
 -0.0134022875     1     9     7     4
 0.0113276454     1     9     7    10
 -0.0047671585     1     9     7    14
 -0.0090243913     1     9     7    18
 -0.6072248019     1     9     9     1
 0.0158118352     1     9     9     3
 -0.0090208515     1     9     9     5
 -0.0036076493     1     9     9    11
 0.0102034633     1     9     9    15
 0.0001077414     1     9    10     6
 -0.0002378405     1     9    10     7
 0.0014035573     1     9    10    12
 -0.0026372478     1     9    10    13
 -0.0009526488     1     9    10    19
 0.0003893331     1     9    11    16
 -0.0003414630     1     9    11    17
 0.0813946596     1     9    12     2
 0.0065784495     1     9    12     4
 -0.0048309203     1     9    12    10
 -0.0000942863     1     9    12    14
 0.0064769040     1     9    12    18
 -0.1529384661     1     9    13     2
 -0.0123607370     1     9    13     4
 0.0090771748     1     9    13    10
 0.0001771614     1     9    13    14
 -0.0121699356     1     9    13    18
 0.0000024680     1     9    14     6
 -0.0000054482     1     9    14     7
 -0.0006968742     1     9    14    12
 0.0013094086     1     9    14    13
 0.0010768294     1     9    14    19
 0.0010446091     1     9    15    16
 -0.0009161702     1     9    15    17
 -0.1766349039     1     9    16     1
 0.0107002701     1     9    16     3
 -0.0049675766     1     9    16     5
 -0.0031462755     1     9    16    11
 0.0106556101     1     9    16    15
 0.1549169352     1     9    17     1
 -0.0093846290     1     9    17     3
 0.0043567932     1     9    17     5
 0.0027594282     1     9    17    11
 -0.0093454602     1     9    17    15
 0.0003396706     1     9    18     6
 -0.0007498274     1     9    18     7
 0.0012862902     1     9    18    12
 -0.0024169061     1     9    18    13
 0.0001972347     1     9    18    19
 -0.0242102628     1     9    19     2
 -0.0010870655     1     9    19     4
 0.0008173073     1     9    19    10
 -0.0010499342     1     9    19    14
 -0.0007506922     1     9    19    18
 -0.0068158158     1    10     2     1
 -0.0001726139     1    10     2     3
 -0.0003833782     1    10     2     5
 -0.0003243717     1    10     2    11
 0.0000470139     1    10     2    15
 0.0000000001     1    10     3     1
 -0.1614903928     1    10     3     2
 -0.0025666117     1    10     3     4
 0.0049633962     1    10     3    14
 -0.0020494238     1    10     3    18
 0.0891584511     1    10     4     1
 0.0059512240     1    10     4     3
 -0.0045426768     1    10     4     5
 0.0022986054     1    10     4    11
 0.0042357235     1    10     4    15
 -0.1314628744     1    10     5     2
 -0.0152765042     1    10     5     4
 0.0083133789     1    10     5    14
 -0.0070568064     1    10     5    18
 -0.0113276454     1    10     6     8
 0.0051314054     1    10     6     9
 0.0113887450     1    10     6    16
 0.0051607236     1    10     6    17
 -0.0051314054     1    10     7     8
 -0.0113276454     1    10     7     9
 -0.0051607236     1    10     7    16
 0.0113887450     1    10     7    17
 -0.0115654859     1    10     8     6
 -0.0052391468     1    10     8     7
 -0.0117144226     1    10     8    12
 -0.0062344776     1    10     8    13
 -0.0077796344     1    10     8    19
 0.0052391468     1    10     9     6
 -0.0115654859     1    10     9     7
 0.0062344776     1    10     9    12
 -0.0117144226     1    10     9    13
 -0.0017699561     1    10     9    19
 -0.5456651886     1    10    10     1
 0.0036125441     1    10    10     3
 -0.0121977304     1    10    10     5
 -0.0057274568     1    10    10    11
 0.0064359820     1    10    10    15
 -0.0159841411     1    10    11     2
 -0.0098174052     1    10    11     4
 0.0147564791     1    10    11    14
 -0.0043041356     1    10    11    18
 -0.0090771748     1    10    12     8
 0.0048309203     1    10    12     9
 0.0133570835     1    10    12    16
 0.0050540436     1    10    12    17
 -0.0048309203     1    10    13     8
 -0.0090771748     1    10    13     9
 -0.0050540436     1    10    13    16
 0.0133570835     1    10    13    17
 0.2162888360     1    10    14     1
 -0.0063450610     1    10    14     3
 0.0186655503     1    10    14     5
 0.0142542523     1    10    14    11
 -0.0148702329     1    10    14    15
 -0.0560155971     1    10    15     2
 0.0039303881     1    10    15     4
 -0.0047803006     1    10    15    14
 0.0029053366     1    10    15    18
 0.0096907856     1    10    16     6
 -0.0043913061     1    10    16     7
 0.0142610979     1    10    16    12
 -0.0053961039     1    10    16    13
 0.0026398755     1    10    16    19
 0.0043913061     1    10    17     6
 0.0096907856     1    10    17     7
 0.0053961039     1    10    17    12
 0.0142610979     1    10    17    13