&FCI NORB=  9,NELEC=  8,MS2=0,
 ORBSYM=1,1,1,1,1,1,1,1,1
 ISYM=1,
&END
 0.2585042668     1     1     2     2
 0.0000000199     1     1     2     7
 0.2666023908     1     1     3     3
 -0.0000000102     1     1     3     4
 -0.0000000102     1     1     4     3
 0.2696840880     1     1     4     4
 0.2607500971     1     1     5     5
 -0.0000000129     1     1     5     6
 -0.0000000129     1     1     6     5
 0.2567270205     1     1     6     6
 0.0000000199     1     1     7     2
 0.1895656455     1     1     7     7
 0.1752095284     1     1     8     8
 -0.0000000336     1     1     8     9
 -0.0000000336     1     1     9     8
 0.1850604903     1     1     9     9
 -0.2585042668     1     2     2     1
 0.0000000102     1     2     3     3
 -0.0019226990     1     2     3     4
 -0.0011590004     1     2     4     3
 -0.0000000102     1     2     4     4
 -0.0000000129     1     2     5     5
 -0.0011675510     1     2     5     6
 -0.0028555112     1     2     6     5
 0.0000000129     1     2     6     6
 -0.0000000199     1     2     7     1
 0.0000000336     1     2     8     8
 -0.0052307868     1     2     8     9
 -0.0046201758     1     2     9     8
 -0.0000000336     1     2     9     9
 -0.0000762985     1     3     2     4
 -0.2666023908     1     3     3     1
 -0.0000000102     1     3     3     2
 0.0000000029     1     3     3     7
 0.0000000102     1     3     4     1
 0.0011590004     1     3     4     2
 0.0009183038     1     3     4     7
 -0.0012254096     1     3     5     8
 0.0000000066     1     3     5     9
 0.0000000126     1     3     6     8
 -0.0005816667     1     3     6     9
 0.0000000006     1     3     7     4
 -0.0001072274     1     3     8     5
 0.0000000007     1     3     8     6
 -0.0000000002     1     3     9     5
 -0.0001941102     1     3     9     6
 0.0000762985     1     4     2     3
 0.0000000102     1     4     3     1
 0.0019226990     1     4     3     2
 0.0009183033     1     4     3     7
 -0.2696840880     1     4     4     1
 0.0000000102     1     4     4     2
 -0.0000000029     1     4     4     7
 0.0000000025     1     4     5     8
 -0.0038472074     1     4     5     9
 -0.0020401239     1     4     6     8
 0.0000000035     1     4     6     9
 -0.0000000006     1     4     7     3
 0.0000000007     1     4     8     5
 0.0000868744     1     4     8     6
 -0.0002144644     1     4     9     5
 0.0000000003     1     4     9     6
 0.0007847770     1     5     2     6
 -0.0007608223     1     5     3     8
 0.0000000067     1     5     3     9
 0.0000000009     1     5     4     8
 -0.0029445910     1     5     4     9
 -0.2607500971     1     5     5     1
 0.0000000129     1     5     5     2
 -0.0000000010     1     5     5     7
 0.0000000129     1     5     6     1
 0.0028555112     1     5     6     2
 0.0003088824     1     5     6     7
 0.0000000014     1     5     7     6
 0.0001072274     1     5     8     3
 -0.0000000007     1     5     8     4
 0.0000000002     1     5     9     3
 0.0002144644     1     5     9     4
 -0.0007847770     1     6     2     5
 0.0000000097     1     6     3     8
 -0.0001067675     1     6     3     9
 -0.0020769961     1     6     4     8
 0.0000000020     1     6     4     9
 0.0000000129     1     6     5     1
 0.0011675510     1     6     5     2
 0.0003088811     1     6     5     7
 -0.2567270205     1     6     6     1
 -0.0000000129     1     6     6     2
 0.0000000010     1     6     6     7
 -0.0000000014     1     6     7     5
 -0.0000000007     1     6     8     3
 -0.0000868744     1     6     8     4
 0.0001941102     1     6     9     3
 -0.0000000003     1     6     9     4
 -0.0000000199     1     7     2     1
 -0.0000000029     1     7     3     3
 -0.0009183033     1     7     3     4
 -0.0009183038     1     7     4     3
 0.0000000029     1     7     4     4
 0.0000000010     1     7     5     5
 -0.0003088811     1     7     5     6
 -0.0003088824     1     7     6     5
 -0.0000000010     1     7     6     6
 -0.1895656455     1     7     7     1
 -0.0000000028     1     7     8     8
 -0.0009447110     1     7     8     9
 -0.0009447094     1     7     9     8
 0.0000000028     1     7     9     9
 -0.0007009209     1     8     2     9
 0.0007608223     1     8     3     5
 -0.0000000097     1     8     3     6
 -0.0000000009     1     8     4     5
 0.0020769961     1     8     4     6
 0.0012254096     1     8     5     3
 -0.0000000025     1     8     5     4
 -0.0000000126     1     8     6     3
 0.0020401239     1     8     6     4
 -0.0000000017     1     8     7     9
 -0.1752095284     1     8     8     1
 -0.0000000336     1     8     8     2
 0.0000000028     1     8     8     7
 0.0000000336     1     8     9     1
 0.0046201758     1     8     9     2
 0.0009447094     1     8     9     7
 0.0007009209     1     9     2     8
 -0.0000000067     1     9     3     5
 0.0001067675     1     9     3     6
 0.0029445910     1     9     4     5
 -0.0000000020     1     9     4     6
 -0.0000000066     1     9     5     3
 0.0038472074     1     9     5     4
 0.0005816667     1     9     6     3
 -0.0000000035     1     9     6     4
 0.0000000017     1     9     7     8
 0.0000000336     1     9     8     1
 0.0052307868     1     9     8     2
 0.0009447110     1     9     8     7
 -0.1850604903     1     9     9     1
 0.0000000336     1     9     9     2
 -0.0000000028     1     9     9     7
 -0.2585042668     2     1     1     2
 -0.0000000199     2     1     1     7
 0.0000000102     2     1     3     3
 -0.0011590004     2     1     3     4
 -0.0019226990     2     1     4     3
 -0.0000000102     2     1     4     4
 -0.0000000129     2     1     5     5
 -0.0028555112     2     1     5     6
 -0.0011675510     2     1     6     5
 0.0000000129     2     1     6     6
 0.0000000336     2     1     8     8
 -0.0046201758     2     1     8     9
 -0.0052307868     2     1     9     8
 -0.0000000336     2     1     9     9
 0.2585042668     2     2     1     1
 0.2696840801     2     2     3     3
 0.0000000102     2     2     3     4
 0.0000000102     2     2     4     3
 0.2666023648     2     2     4     4
 0.2567270144     2     2     5     5
 0.0000000129     2     2     5     6
 0.0000000129     2     2     6     5
 0.2607500765     2     2     6     6
 0.1895656573     2     2     7     7
 0.1850605103     2     2     8     8
 0.0000000336     2     2     8     9
 0.0000000336     2     2     9     8
 0.1752095170     2     2     9     9
 0.0000762985     2     3     1     4
 -0.0000000102     2     3     3     1
 -0.2696840801     2     3     3     2
 0.0009182827     2     3     3     7
 0.0019226990     2     3     4     1
 -0.0000000102     2     3     4     2
 -0.0000000029     2     3     4     7
 0.0000000035     2     3     5     8
 0.0020401297     2     3     5     9
 0.0038472036     2     3     6     8
 0.0000000025     2     3     6     9
 0.0000000003     2     3     8     5
 0.0002144660     2     3     8     6
 -0.0000868738     2     3     9     5
 0.0000000007     2     3     9     6
 -0.0000762985     2     4     1     3
 0.0011590004     2     4     3     1
 -0.0000000102     2     4     3     2
 -0.0000000029     2     4     3     7
 0.0000000102     2     4     4     1
 -0.2666023648     2     4     4     2
 -0.0009183239     2     4     4     7
 0.0005816682     2     4     5     8
 0.0000000126     2     4     5     9
 0.0000000066     2     4     6     8
 0.0012254142     2     4     6     9
 0.0001941093     2     4     8     5
 -0.0000000002     2     4     8     6
 0.0000000007     2     4     9     5
 0.0001072276     2     4     9     6
 -0.0007847770     2     5     1     6
 0.0000000020     2     5     3     8
 0.0020770010     2     5     3     9
 0.0001067694     2     5     4     8
 0.0000000097     2     5     4     9
 0.0000000129     2     5     5     1
 -0.2567270144     2     5     5     2
 -0.0003089003     2     5     5     7
 0.0011675510     2     5     6     1
 -0.0000000129     2     5     6     2
 -0.0000000010     2     5     6     7
 -0.0000000003     2     5     8     3
 -0.0001941093     2     5     8     4
 0.0000868738     2     5     9     3
 -0.0000000007     2     5     9     4
 0.0007847770     2     6     1     5
 0.0029445853     2     6     3     8
 0.0000000009     2     6     3     9
 0.0000000067     2     6     4     8
 0.0007608268     2     6     4     9
 0.0028555112     2     6     5     1
 -0.0000000129     2     6     5     2
 -0.0000000010     2     6     5     7
 -0.0000000129     2     6     6     1
 -0.2607500765     2     6     6     2
 0.0003088640     2     6     6     7
 -0.0002144660     2     6     8     3
 0.0000000002     2     6     8     4
 -0.0000000007     2     6     9     3
 -0.0001072276     2     6     9     4
 0.0000000199     2     7     1     1
 -0.0009182827     2     7     3     3
 0.0000000029     2     7     3     4
 0.0000000029     2     7     4     3
 0.0009183239     2     7     4     4
 0.0003089003     2     7     5     5
 0.0000000010     2     7     5     6
 0.0000000010     2     7     6     5
 -0.0003088640     2     7     6     6
 -0.1895656573     2     7     7     2
 -0.0009447005     2     7     8     8
 0.0000000028     2     7     8     9
 0.0000000028     2     7     9     8
 0.0009447223     2     7     9     9
 0.0007009209     2     8     1     9
 -0.0000000020     2     8     3     5
 -0.0029445853     2     8     3     6
 -0.0001067694     2     8     4     5
 -0.0000000067     2     8     4     6
 -0.0000000035     2     8     5     3
 -0.0005816682     2     8     5     4
 -0.0038472036     2     8     6     3
 -0.0000000066     2     8     6     4
 -0.0000000336     2     8     8     1
 -0.1850605103     2     8     8     2
 0.0009447005     2     8     8     7
 0.0052307868     2     8     9     1
 -0.0000000336     2     8     9     2
 -0.0000000028     2     8     9     7
 -0.0007009209     2     9     1     8
 -0.0020770010     2     9     3     5
 -0.0000000009     2     9     3     6
 -0.0000000097     2     9     4     5
 -0.0007608268     2     9     4     6
 -0.0020401297     2     9     5     3
 -0.0000000126     2     9     5     4
 -0.0000000025     2     9     6     3
 -0.0012254142     2     9     6     4
 0.0046201758     2     9     8     1
 -0.0000000336     2     9     8     2
 -0.0000000028     2     9     8     7
 0.0000000336     2     9     9     1
 -0.1752095170     2     9     9     2
 -0.0009447223     2     9     9     7
 -0.2666023908     3     1     1     3
 0.0000000102     3     1     1     4
 -0.0000000102     3     1     2     3
 0.0011590004     3     1     2     4
 -0.0000762985     3     1     4     2
 0.0000000006     3     1     4     7
 -0.0001072274     3     1     5     8
 -0.0000000002     3     1     5     9
 0.0000000007     3     1     6     8
 -0.0001941102     3     1     6     9
 0.0000000029     3     1     7     3
 0.0009183038     3     1     7     4
 -0.0012254096     3     1     8     5
 0.0000000126     3     1     8     6
 0.0000000066     3     1     9     5
 -0.0005816667     3     1     9     6
 -0.0000000102     3     2     1     3
 0.0019226990     3     2     1     4
 -0.2696840801     3     2     2     3
 -0.0000000102     3     2     2     4
 0.0000762985     3     2     4     1
 0.0000000003     3     2     5     8
 -0.0000868738     3     2     5     9
 0.0002144660     3     2     6     8
 0.0000000007     3     2     6     9
 0.0009182827     3     2     7     3
 -0.0000000029     3     2     7     4
 0.0000000035     3     2     8     5
 0.0038472036     3     2     8     6
 0.0020401297     3     2     9     5
 0.0000000025     3     2     9     6
 0.2666023908     3     3     1     1
 0.0000000102     3     3     1     2
 -0.0000000029     3     3     1     7
 0.0000000102     3     3     2     1
 0.2696840801     3     3     2     2
 -0.0009182827     3     3     2     7
 0.2505068803     3     3     4     4
 0.2309038381     3     3     5     5
 -0.0000000007     3     3     5     6
 -0.0000000007     3     3     6     5
 0.2406954962     3     3     6     6
 -0.0000000029     3     3     7     1
 -0.0009182827     3     3     7     2
 0.1878700682     3     3     7     7
 0.1843816894     3     3     8     8
 0.0000000018     3     3     8     9
 0.0000000018     3     3     9     8
 0.1694546516     3     3     9     9
 -0.0000000102     3     4     1     1
 -0.0019226990     3     4     1     2
 -0.0009183033     3     4     1     7
 -0.0011590004     3     4     2     1
 0.0000000102     3     4     2     2
 0.0000000029     3     4     2     7
 -0.2505068803     3     4     4     3
 -0.0000000007     3     4     5     5
 0.0273468238     3     4     5     6
 -0.0175551563     3     4     6     5
 0.0000000007     3     4     6     6
 -0.0009183038     3     4     7     1
 0.0000000029     3     4     7     2
 -0.0000000018     3     4     8     8
 0.0076159297     3     4     8     9
 0.0073110937     3     4     9     8
 0.0000000018     3     4     9     9
 0.0007608223     3     5     1     8
 -0.0000000067     3     5     1     9
 -0.0000000020     3     5     2     8
 -0.0020770010     3     5     2     9
 0.0447422801     3     5     4     6
 -0.2309038381     3     5     5     3
 0.0000000007     3     5     5     4
 0.0000000007     3     5     6     3
 0.0175551563     3     5     6     4
 -0.0000000036     3     5     7     8
 0.0246916117     3     5     7     9
 0.0012254096     3     5     8     1
 -0.0000000035     3     5     8     2
 -0.0000000035     3     5     8     7
 -0.0000000066     3     5     9     1
 -0.0020401297     3     5     9     2
 0.0244729291     3     5     9     7
 -0.0000000097     3     6     1     8
 0.0001067675     3     6     1     9
 -0.0029445853     3     6     2     8
 -0.0000000009     3     6     2     9
 -0.0447422801     3     6     4     5
 0.0000000007     3     6     5     3
 -0.0273468238     3     6     5     4
 -0.2406954962     3     6     6     3
 -0.0000000007     3     6     6     4
 -0.0246916349     3     6     7     8
 -0.0000000036     3     6     7     9
 -0.0000000126     3     6     8     1
 -0.0038472036     3     6     8     2
 -0.0244729521     3     6     8     7
 0.0005816667     3     6     9     1
 -0.0000000025     3     6     9     2
 -0.0000000035     3     6     9     7
 0.0000000029     3     7     1     3
 0.0009183033     3     7     1     4
 0.0009182827     3     7     2     3
 -0.0000000029     3     7     2     4
 -0.0000000006     3     7     4     1
 0.0001016607     3     7     5     9
 -0.0001016610     3     7     6     8
 -0.1878700682     3     7     7     3
 0.0000000035     3     7     8     5
 0.0244729521     3     7     8     6
 -0.0244729291     3     7     9     5
 0.0000000035     3     7     9     6
 -0.0007608223     3     8     1     5
 0.0000000097     3     8     1     6
 0.0000000020     3     8     2     5
 0.0029445853     3     8     2     6
 0.0002772006     3     8     4     9
 0.0001072274     3     8     5     1
 -0.0000000003     3     8     5     2
 -0.0000000007     3     8     6     1
 -0.0002144660     3     8     6     2
 0.0001016610     3     8     6     7
 0.0000000036     3     8     7     5
 0.0246916349     3     8     7     6
 -0.1843816894     3     8     8     3
 0.0000000018     3     8     8     4
 -0.0000000018     3     8     9     3
 -0.0073110937     3     8     9     4
 0.0000000067     3     9     1     5
 -0.0001067675     3     9     1     6
 0.0020770010     3     9     2     5
 0.0000000009     3     9     2     6
 -0.0002772006     3     9     4     8
 0.0000000002     3     9     5     1
 0.0000868738     3     9     5     2
 -0.0001016607     3     9     5     7
 0.0001941102     3     9     6     1
 -0.0000000007     3     9     6     2
 -0.0246916117     3     9     7     5
 0.0000000036     3     9     7     6
 -0.0000000018     3     9     8     3
 -0.0076159297     3     9     8     4
 -0.1694546516     3     9     9     3
 -0.0000000018     3     9     9     4
 0.0000000102     4     1     1     3
 -0.2696840880     4     1     1     4
 0.0019226990     4     1     2     3
 0.0000000102     4     1     2     4
 0.0000762985     4     1     3     2
 -0.0000000006     4     1     3     7
 0.0000000007     4     1     5     8
 -0.0002144644     4     1     5     9
 0.0000868744     4     1     6     8
 0.0000000003     4     1     6     9
 0.0009183033     4     1     7     3
 -0.0000000029     4     1     7     4
 0.0000000025     4     1     8     5
 -0.0020401239     4     1     8     6
 -0.0038472074     4     1     9     5
 0.0000000035     4     1     9     6
 0.0011590004     4     2     1     3
 0.0000000102     4     2     1     4
 -0.0000000102     4     2     2     3
 -0.2666023648     4     2     2     4
 -0.0000762985     4     2     3     1
 0.0001941093     4     2     5     8
 0.0000000007     4     2     5     9
 -0.0000000002     4     2     6     8
 0.0001072276     4     2     6     9
 -0.0000000029     4     2     7     3
 -0.0009183239     4     2     7     4
 0.0005816682     4     2     8     5
 0.0000000066     4     2     8     6
 0.0000000126     4     2     9     5
 0.0012254142     4     2     9     6
 -0.0000000102     4     3     1     1
 -0.0011590004     4     3     1     2
 -0.0009183038     4     3     1     7
 -0.0019226990     4     3     2     1
 0.0000000102     4     3     2     2
 0.0000000029     4     3     2     7
 -0.2505068803     4     3     3     4
 -0.0000000007     4     3     5     5
 -0.0175551563     4     3     5     6
 0.0273468238     4     3     6     5
 0.0000000007     4     3     6     6
 -0.0009183033     4     3     7     1
 0.0000000029     4     3     7     2
 -0.0000000018     4     3     8     8
 0.0073110937     4     3     8     9
 0.0076159297     4     3     9     8
 0.0000000018     4     3     9     9
 0.2696840880     4     4     1     1
 -0.0000000102     4     4     1     2
 0.0000000029     4     4     1     7
 -0.0000000102     4     4     2     1
 0.2666023648     4     4     2     2
 0.0009183239     4     4     2     7
 0.2505068803     4     4     3     3
 0.2406954937     4     4     5     5
 0.0000000007     4     4     5     6
 0.0000000007     4     4     6     5
 0.2309038290     4     4     6     6
 0.0000000029     4     4     7     1
 0.0009183239     4     4     7     2
 0.1878700498     4     4     7     7
 0.1694546480     4     4     8     8
 -0.0000000018     4     4     8     9
 -0.0000000018     4     4     9     8
 0.1843816694     4     4     9     9
 -0.0000000009     4     5     1     8
 0.0029445910     4     5     1     9
 -0.0001067694     4     5     2     8
 -0.0000000097     4     5     2     9
 -0.0447422801     4     5     3     6
 0.0000000007     4     5     5     3
 -0.2406954937     4     5     5     4
 -0.0273468238     4     5     6     3
 -0.0000000007     4     5     6     4
 0.0246916285     4     5     7     8
 0.0000000036     4     5     7     9
 -0.0000000025     4     5     8     1
 -0.0005816682     4     5     8     2
 0.0244729459     4     5     8     7
 0.0038472074     4     5     9     1
 -0.0000000126     4     5     9     2
 0.0000000035     4     5     9     7
 0.0020769961     4     6     1     8
 -0.0000000020     4     6     1     9
 -0.0000000067     4     6     2     8
 -0.0007608268     4     6     2     9
 0.0447422801     4     6     3     5
 0.0175551563     4     6     5     3
 -0.0000000007     4     6     5     4
 -0.0000000007     4     6     6     3
 -0.2309038290     4     6     6     4
 -0.0000000036     4     6     7     8
 0.0246916083     4     6     7     9
 0.0020401239     4     6     8     1
 -0.0000000066     4     6     8     2
 -0.0000000035     4     6     8     7
 -0.0000000035     4     6     9     1
 -0.0012254142     4     6     9     2
 0.0244729259     4     6     9     7
 0.0009183038     4     7     1     3
 -0.0000000029     4     7     1     4
 -0.0000000029     4     7     2     3
 -0.0009183239     4     7     2     4
 0.0000000006     4     7     3     1
 0.0001016607     4     7     5     8
 0.0001016605     4     7     6     9
 -0.1878700498     4     7     7     4
 -0.0244729459     4     7     8     5
 0.0000000035     4     7     8     6
 -0.0000000035     4     7     9     5
 -0.0244729259     4     7     9     6
 0.0000000009     4     8     1     5
 -0.0020769961     4     8     1     6
 0.0001067694     4     8     2     5
 0.0000000067     4     8     2     6
 -0.0002772006     4     8     3     9
 -0.0000000007     4     8     5     1
 -0.0001941093     4     8     5     2
 -0.0001016607     4     8     5     7
 -0.0000868744     4     8     6     1
 0.0000000002     4     8     6     2
 -0.0246916285     4     8     7     5
 0.0000000036     4     8     7     6
 0.0000000018     4     8     8     3
 -0.1694546480     4     8     8     4
 -0.0076159297     4     8     9     3
 0.0000000018     4     8     9     4
 -0.0029445910     4     9     1     5
 0.0000000020     4     9     1     6
 0.0000000097     4     9     2     5
 0.0007608268     4     9     2     6
 0.0002772006     4     9     3     8
 0.0002144644     4     9     5     1
 -0.0000000007     4     9     5     2
 -0.0000000003     4     9     6     1
 -0.0001072276     4     9     6     2
 -0.0001016605     4     9     6     7
 -0.0000000036     4     9     7     5
 -0.0246916083     4     9     7     6
 -0.0073110937     4     9     8     3
 0.0000000018     4     9     8     4
 -0.0000000018     4     9     9     3
 -0.1843816694     4     9     9     4
 -0.2607500971     5     1     1     5
 0.0000000129     5     1     1     6
 0.0000000129     5     1     2     5
 0.0028555112     5     1     2     6
 0.0001072274     5     1     3     8
 0.0000000002     5     1     3     9
 -0.0000000007     5     1     4     8
 0.0002144644     5     1     4     9
 0.0007847770     5     1     6     2
 0.0000000014     5     1     6     7
 -0.0000000010     5     1     7     5
 0.0003088824     5     1     7     6
 -0.0007608223     5     1     8     3
 0.0000000009     5     1     8     4
 0.0000000067     5     1     9     3
 -0.0029445910     5     1     9     4
 0.0000000129     5     2     1     5
 0.0011675510     5     2     1     6
 -0.2567270144     5     2     2     5
 -0.0000000129     5     2     2     6
 -0.0000000003     5     2     3     8
 0.0000868738     5     2     3     9
 -0.0001941093     5     2     4     8
 -0.0000000007     5     2     4     9
 -0.0007847770     5     2     6     1
 -0.0003089003     5     2     7     5
 -0.0000000010     5     2     7     6
 0.0000000020     5     2     8     3
 0.0001067694     5     2     8     4
 0.0020770010     5     2     9     3
 0.0000000097     5     2     9     4
 0.0012254096     5     3     1     8
 -0.0000000066     5     3     1     9
 -0.0000000035     5     3     2     8
 -0.0020401297     5     3     2     9
 -0.2309038381     5     3     3     5
 0.0000000007     5     3     3     6
 0.0000000007     5     3     4     5
 0.0175551563     5     3     4     6
 0.0447422801     5     3     6     4
 -0.0000000035     5     3     7     8
 0.0244729291     5     3     7     9
 0.0007608223     5     3     8     1
 -0.0000000020     5     3     8     2
 -0.0000000036     5     3     8     7
 -0.0000000067     5     3     9     1
 -0.0020770010     5     3     9     2
 0.0246916117     5     3     9     7
 -0.0000000025     5     4     1     8
 0.0038472074     5     4     1     9
 -0.0005816682     5     4     2     8
 -0.0000000126     5     4     2     9
 0.0000000007     5     4     3     5
 -0.0273468238     5     4     3     6
 -0.2406954937     5     4     4     5
 -0.0000000007     5     4     4     6
 -0.0447422801     5     4     6     3
 0.0244729459     5     4     7     8
 0.0000000035     5     4     7     9
 -0.0000000009     5     4     8     1
 -0.0001067694     5     4     8     2
 0.0246916285     5     4     8     7
 0.0029445910     5     4     9     1
 -0.0000000097     5     4     9     2
 0.0000000036     5     4     9     7
 0.2607500971     5     5     1     1
 -0.0000000129     5     5     1     2
 0.0000000010     5     5     1     7
 -0.0000000129     5     5     2     1
 0.2567270144     5     5     2     2
 0.0003089003     5     5     2     7
 0.2309038381     5     5     3     3
 -0.0000000007     5     5     3     4
 -0.0000000007     5     5     4     3
 0.2406954937     5     5     4     4
 0.2438422677     5     5     6     6
 0.0000000010     5     5     7     1
 0.0003089003     5     5     7     2
 0.1843798313     5     5     7     7
 0.1699443472     5     5     8     8
 -0.0000000019     5     5     8     9
 -0.0000000019     5     5     9     8
 0.1795502587     5     5     9     9
 -0.0000000129     5     6     1     1
 -0.0011675510     5     6     1     2
 -0.0003088811     5     6     1     7
 -0.0028555112     5     6     2     1
 0.0000000129     5     6     2     2
 0.0000000010     5     6     2     7
 -0.0000000007     5     6     3     3
 0.0273468238     5     6     3     4
 -0.0175551563     5     6     4     3
 0.0000000007     5     6     4     4
 -0.2438422677     5     6     6     5
 -0.0003088824     5     6     7     1
 0.0000000010     5     6     7     2
 -0.0000000019     5     6     8     8
 0.0048858051     5     6     8     9
 0.0047201051     5     6     9     8
 0.0000000019     5     6     9     9
 -0.0000000010     5     7     1     5
 0.0003088811     5     7     1     6
 -0.0003089003     5     7     2     5
 -0.0000000010     5     7     2     6
 -0.0001016607     5     7     3     9
 -0.0001016607     5     7     4     8
 -0.0000000014     5     7     6     1
 -0.1843798313     5     7     7     5
 0.0000000036     5     7     8     3
 -0.0246916285     5     7     8     4
 -0.0246916117     5     7     9     3
 -0.0000000036     5     7     9     4
 -0.0012254096     5     8     1     3
 0.0000000025     5     8     1     4
 0.0000000035     5     8     2     3
 0.0005816682     5     8     2     4
 -0.0001072274     5     8     3     1
 0.0000000003     5     8     3     2
 0.0000000007     5     8     4     1
 0.0001941093     5     8     4     2
 0.0001016607     5     8     4     7
 0.0002083092     5     8     6     9
 0.0000000035     5     8     7     3
 -0.0244729459     5     8     7     4
 -0.1699443472     5     8     8     5
 0.0000000019     5     8     8     6
 0.0000000019     5     8     9     5
 -0.0047201051     5     8     9     6
 0.0000000066     5     9     1     3
 -0.0038472074     5     9     1     4
 0.0020401297     5     9     2     3
 0.0000000126     5     9     2     4
 -0.0000000002     5     9     3     1
 -0.0000868738     5     9     3     2
 0.0001016607     5     9     3     7
 -0.0002144644     5     9     4     1
 0.0000000007     5     9     4     2
 -0.0002083092     5     9     6     8
 -0.0244729291     5     9     7     3
 -0.0000000035     5     9     7     4
 0.0000000019     5     9     8     5
 -0.0048858051     5     9     8     6
 -0.1795502587     5     9     9     5
 -0.0000000019     5     9     9     6
 0.0000000129     6     1     1     5
 -0.2567270205     6     1     1     6
 0.0011675510     6     1     2     5
 -0.0000000129     6     1     2     6
 -0.0000000007     6     1     3     8
 0.0001941102     6     1     3     9
 -0.0000868744     6     1     4     8
 -0.0000000003     6     1     4     9
 -0.0007847770     6     1     5     2
 -0.0000000014     6     1     5     7
 0.0003088811     6     1     7     5
 0.0000000010     6     1     7     6
 0.0000000097     6     1     8     3
 -0.0020769961     6     1     8     4
 -0.0001067675     6     1     9     3
 0.0000000020     6     1     9     4
 0.0028555112     6     2     1     5
 -0.0000000129     6     2     1     6
 -0.0000000129     6     2     2     5
 -0.2607500765     6     2     2     6
 -0.0002144660     6     2     3     8
 -0.0000000007     6     2     3     9
 0.0000000002     6     2     4     8
 -0.0001072276     6     2     4     9
 0.0007847770     6     2     5     1
 -0.0000000010     6     2     7     5
 0.0003088640     6     2     7     6
 0.0029445853     6     2     8     3
 0.0000000067     6     2     8     4
 0.0000000009     6     2     9     3
 0.0007608268     6     2     9     4
 -0.0000000126     6     3     1     8
 0.0005816667     6     3     1     9
 -0.0038472036     6     3     2     8
 -0.0000000025     6     3     2     9
 0.0000000007     6     3     3     5
 -0.2406954962     6     3     3     6
 -0.0273468238     6     3     4     5
 -0.0000000007     6     3     4     6
 -0.0447422801     6     3     5     4
 -0.0244729521     6     3     7     8
 -0.0000000035     6     3     7     9
 -0.0000000097     6     3     8     1
 -0.0029445853     6     3     8     2
 -0.0246916349     6     3     8     7
 0.0001067675     6     3     9     1
 -0.0000000009     6     3     9     2
 -0.0000000036     6     3     9     7
 0.0020401239     6     4     1     8
 -0.0000000035     6     4     1     9
 -0.0000000066     6     4     2     8
 -0.0012254142     6     4     2     9
 0.0175551563     6     4     3     5
 -0.0000000007     6     4     3     6
 -0.0000000007     6     4     4     5
 -0.2309038290     6     4     4     6
 0.0447422801     6     4     5     3
 -0.0000000035     6     4     7     8
 0.0244729259     6     4     7     9
 0.0020769961     6     4     8     1
 -0.0000000067     6     4     8     2
 -0.0000000036     6     4     8     7
 -0.0000000020     6     4     9     1
 -0.0007608268     6     4     9     2
 0.0246916083     6     4     9     7
 -0.0000000129     6     5     1     1
 -0.0028555112     6     5     1     2
 -0.0003088824     6     5     1     7
 -0.0011675510     6     5     2     1
 0.0000000129     6     5     2     2
 0.0000000010     6     5     2     7
 -0.0000000007     6     5     3     3
 -0.0175551563     6     5     3     4