&FCI NORB= 19,NELEC= 14,MS2=0,
 ORBSYM=1,1,1,1,1,1,1,1,1,1,1,1,1,1,1,1,1,1,1
 ISYM=1,
&END
 0.2198047796     1     1     2     2
 -0.0003049393     1     1     2     4
 -0.0031227998     1     1     2    10
 0.0027196120     1     1     2    14
 -0.0019320954     1     1     2    18
 0.5647270231     1     1     3     3
 -0.0000000029     1     1     3     4
 0.0038564181     1     1     3     5
 0.0000000004     1     1     3    10
 0.1347706622     1     1     3    13
 0.0000000008     1     1     3    14
 -0.0914245451     1     1     3    15
 0.0000000009     1     1     3    18
 0.0153287219     1     1     3    19
 -0.0003049393     1     1     4     2
 -0.0000000029     1     1     4     3
 0.5719705160     1     1     4     4
 0.0000000007     1     1     4     5
 -0.0318199835     1     1     4    10
 -0.0000000011     1     1     4    13
 -0.1196509332     1     1     4    14
 0.0000000009     1     1     4    15
 -0.1068764081     1     1     4    18
 0.0038564181     1     1     5     3
 0.0000000007     1     1     5     4
 0.5362527766     1     1     5     5
 0.0000000026     1     1     5    10
 0.0974258818     1     1     5    13
 -0.0000000013     1     1     5    14
 0.1684057744     1     1     5    15
 0.0000000006     1     1     5    18
 0.0282560562     1     1     5    19
 0.5318822105     1     1     6     6
 0.0000000025     1     1     6     8
 -0.0000000011     1     1     6     9
 0.2017077494     1     1     6    11
 0.0219980953     1     1     6    12
 0.0000000009     1     1     6    16
 0.0000000013     1     1     6    17
 0.5318822105     1     1     7     7
 -0.0000000011     1     1     7     8
 -0.0000000025     1     1     7     9
 0.0219980953     1     1     7    11
 -0.2017077494     1     1     7    12
 -0.0000000013     1     1     7    16
 0.0000000009     1     1     7    17
 0.0000000025     1     1     8     6
 -0.0000000011     1     1     8     7
 0.5466013392     1     1     8     8
 0.0000000016     1     1     8    11
 0.0000000008     1     1     8    12
 0.1779616371     1     1     8    16
 0.1057004504     1     1     8    17
 -0.0000000011     1     1     9     6
 -0.0000000025     1     1     9     7
 0.5466013392     1     1     9     9
 -0.0000000008     1     1     9    11
 0.0000000016     1     1     9    12
 0.1057004504     1     1     9    16
 -0.1779616371     1     1     9    17
 -0.0031227998     1     1    10     2
 0.0000000004     1     1    10     3
 -0.0318199835     1     1    10     4
 0.0000000026     1     1    10     5
 0.5757626838     1     1    10    10
 0.0000000016     1     1    10    13
 -0.1587502961     1     1    10    14
 0.0000000013     1     1    10    15
 0.1250431946     1     1    10    18
 -0.0000000002     1     1    10    19
 0.2017077494     1     1    11     6
 0.0219980953     1     1    11     7
 0.0000000016     1     1    11     8
 -0.0000000008     1     1    11     9
 0.5314033426     1     1    11    11
 0.0000000013     1     1    11    16
 0.0000000022     1     1    11    17
 0.0219980953     1     1    12     6
 -0.2017077494     1     1    12     7
 0.0000000008     1     1    12     8
 0.0000000016     1     1    12     9
 0.5314033426     1     1    12    12
 0.0000000022     1     1    12    16
 -0.0000000013     1     1    12    17
 0.1347706622     1     1    13     3
 -0.0000000011     1     1    13     4
 0.0974258818     1     1    13     5
 0.0000000016     1     1    13    10
 0.5397303914     1     1    13    13
 -0.0000000001     1     1    13    14
 0.0535504155     1     1    13    15
 0.0000000019     1     1    13    18
 0.0000423330     1     1    13    19
 0.0027196120     1     1    14     2
 0.0000000008     1     1    14     3
 -0.1196509332     1     1    14     4
 -0.0000000013     1     1    14     5
 -0.1587502961     1     1    14    10
 -0.0000000001     1     1    14    13
 0.4794790174     1     1    14    14
 -0.0000000026     1     1    14    15
 -0.0215129734     1     1    14    18
 -0.0000000002     1     1    14    19
 -0.0914245451     1     1    15     3
 0.0000000009     1     1    15     4
 0.1684057744     1     1    15     5
 0.0000000013     1     1    15    10
 0.0535504155     1     1    15    13
 -0.0000000026     1     1    15    14
 0.4890430501     1     1    15    15
 0.0000000002     1     1    15    18
 -0.0006655864     1     1    15    19
 0.0000000009     1     1    16     6
 -0.0000000013     1     1    16     7
 0.1779616371     1     1    16     8
 0.1057004504     1     1    16     9
 0.0000000013     1     1    16    11
 0.0000000022     1     1    16    12
 0.5169653167     1     1    16    16
 0.0000000013     1     1    17     6
 0.0000000009     1     1    17     7
 0.1057004504     1     1    17     8
 -0.1779616371     1     1    17     9
 0.0000000022     1     1    17    11
 -0.0000000013     1     1    17    12
 0.5169653167     1     1    17    17
 -0.0019320954     1     1    18     2
 0.0000000009     1     1    18     3
 -0.1068764081     1     1    18     4
 0.0000000006     1     1    18     5
 0.1250431946     1     1    18    10
 0.0000000019     1     1    18    13
 -0.0215129734     1     1    18    14
 0.0000000002     1     1    18    15
 0.4891424598     1     1    18    18
 0.0000000010     1     1    18    19
 0.0153287219     1     1    19     3
 0.0282560562     1     1    19     5
 -0.0000000002     1     1    19    10
 0.0000423330     1     1    19    13
 -0.0000000002     1     1    19    14
 -0.0006655864     1     1    19    15
 0.0000000010     1     1    19    18
 0.4939883365     1     1    19    19
 -0.2198047796     1     2     2     1
 -0.0001362541     1     2     2     3
 -0.0030256457     1     2     2     5
 -0.0000000001     1     2     2    10
 -0.0022131944     1     2     2    13
 -0.0028415355     1     2     2    15
 -0.0000000001     1     2     2    18
 -0.0004480005     1     2     2    19
 0.3467215307     1     2     3     4
 -0.0448184071     1     2     3    10
 -0.0900214398     1     2     3    14
 -0.1122896982     1     2     3    18
 0.0003049393     1     2     4     1
 0.3467259957     1     2     4     3
 -0.0781879193     1     2     4     5
 0.1322680120     1     2     4    13
 -0.1041726014     1     2     4    15
 0.0031712414     1     2     4    19
 -0.0781981817     1     2     5     4
 -0.3144047869     1     2     5    10
 0.1547949014     1     2     5    14
 -0.0719295872     1     2     5    18
 -0.2988789150     1     2     6     8
 0.1238285527     1     2     6     9
 -0.1110049739     1     2     6    16
 -0.1484533385     1     2     6    17
 0.1238285527     1     2     7     8
 0.2988789150     1     2     7     9
 0.1484533385     1     2     7    16
 -0.1110049739     1     2     7    17
 -0.2988374112     1     2     8     6
 0.1238113573     1     2     8     7
 -0.1866186502     1     2     8    11
 -0.1022925007     1     2     8    12
 0.1238113573     1     2     9     6
 0.2988374112     1     2     9     7
 0.1022925007     1     2     9    11
 -0.1866186502     1     2     9    12
 0.0031227998     1     2    10     1
 -0.0448093883     1     2    10     3
 -0.3143156378     1     2    10     5
 -0.1919035462     1     2    10    13
 -0.1522169921     1     2    10    15
 0.0199016086     1     2    10    19
 -0.1866649340     1     2    11     8
 0.1023178705     1     2    11     9
 -0.1596884403     1     2    11    16
 -0.2704166324     1     2    11    17
 -0.1023178705     1     2    12     8
 -0.1866649340     1     2    12     9
 -0.2704166324     1     2    12    16
 0.1596884403     1     2    12    17
 0.1322629849     1     2    13     4
 -0.1919761006     1     2    13    10
 0.0186898311     1     2    13    14
 -0.2325118394     1     2    13    18
 -0.0027196120     1     2    14     1
 -0.0900303258     1     2    14     3
 0.1547182582     1     2    14     5
 0.0186285893     1     2    14    13
 0.3062592218     1     2    14    15
 0.0230539670     1     2    14    19
 -0.1041786048     1     2    15     4
 -0.1523035441     1     2    15    10
 0.3063326316     1     2    15    14
 -0.0207871783     1     2    15    18
 -0.1109739115     1     2    16     6
 0.1484117970     1     2    16     7
 -0.1596569942     1     2    16    11
 -0.2703633816     1     2    16    12
 -0.1484117970     1     2    17     6
 -0.1109739115     1     2    17     7
 -0.2703633816     1     2    17    11
 0.1596569942     1     2    17    12
 0.0019320954     1     2    18     1
 -0.1122832934     1     2    18     3
 -0.0718722052     1     2    18     5
 -0.2324658978     1     2    18    13
 -0.0207332107     1     2    18    15
 -0.1127607183     1     2    18    19
 0.0031701248     1     2    19     4
 0.0198842025     1     2    19    10
 0.0230691134     1     2    19    14
 -0.1127716292     1     2    19    18
 0.0001362541     1     3     2     2
 -0.0000040904     1     3     2     4
 -0.0000089437     1     3     2    10
 0.0000083708     1     3     2    14
 -0.0000051742     1     3     2    18
 -0.5647270231     1     3     3     1
 -0.0022572316     1     3     3     5
 -0.0023694281     1     3     3    13
 -0.0021721011     1     3     3    15
 -0.0003664941     1     3     3    19
 0.0000000029     1     3     4     1
 -0.3467259957     1     3     4     2
 -0.0004300672     1     3     4     4
 -0.0031837854     1     3     4    10
 0.0030955507     1     3     4    14
 -0.0014047979     1     3     4    18
 -0.0038564181     1     3     5     1
 -0.0176445024     1     3     5     5
 -0.0000000001     1     3     5    10
 -0.0141664020     1     3     5    13
 0.0000000001     1     3     5    14
 -0.0184600546     1     3     5    15
 -0.0011734009     1     3     5    19
 -0.0179458040     1     3     6     6
 -0.0000000001     1     3     6     8
 -0.0223480589     1     3     6    11
 -0.0024372625     1     3     6    12
 -0.0000000001     1     3     6    17
 -0.0179458040     1     3     7     7
 0.0000000001     1     3     7     9
 -0.0024372625     1     3     7    11
 0.0223480589     1     3     7    12
 0.0000000001     1     3     7    16
 -0.0182986511     1     3     8     8
 -0.0000000001     1     3     8    11
 -0.0187981890     1     3     8    16
 -0.0111651987     1     3     8    17
 -0.0182986511     1     3     9     9
 -0.0000000001     1     3     9    12
 -0.0111651987     1     3     9    16
 0.0187981890     1     3     9    17
 -0.0000000004     1     3    10     1
 0.0448093883     1     3    10     2
 -0.0023432735     1     3    10     4
 -0.0000000001     1     3    10     5
 -0.0193938394     1     3    10    10
 0.0178567035     1     3    10    14
 -0.0000000001     1     3    10    15
 -0.0120165387     1     3    10    18
 -0.0150601462     1     3    11     6
 -0.0016424483     1     3    11     7
 -0.0195782322     1     3    11    11
 -0.0016424483     1     3    12     6
 0.0150601462     1     3    12     7
 -0.0195782322     1     3    12    12
 -0.1347706622     1     3    13     1
 -0.0095603088     1     3    13     5
 -0.0081532620     1     3    13    13
 -0.0100446291     1     3    13    15
 -0.0004620840     1     3    13    19
 -0.0000000008     1     3    14     1
 0.0900303258     1     3    14     2
 0.0014838804     1     3    14     4
 0.0125826174     1     3    14    10
 -0.0124039697     1     3    14    14
 0.0078027928     1     3    14    18
 0.0914245451     1     3    15     1
 -0.0117123502     1     3    15     5
 -0.0092938173     1     3    15    13
 -0.0130290976     1     3    15    15
 -0.0007200989     1     3    15    19
 -0.0130786408     1     3    16     8
 -0.0077680687     1     3    16     9
 -0.0188673258     1     3    16    16
 -0.0077680687     1     3    17     8
 0.0130786408     1     3    17     9
 -0.0188673258     1     3    17    17
 -0.0000000009     1     3    18     1
 0.1122832934     1     3    18     2
 -0.0008781618     1     3    18     4
 -0.0079476405     1     3    18    10
 0.0074676295     1     3    18    14
 -0.0057147593     1     3    18    18
 -0.0153287219     1     3    19     1
 -0.0009112607     1     3    19     5
 -0.0007105742     1     3    19    13
 -0.0011137638     1     3    19    15
 -0.0027576808     1     3    19    19
 0.0003049393     1     4     2     1
 0.0000040904     1     4     2     3
 0.0000091831     1     4     2     5
 0.0000055197     1     4     2    13
 0.0000066392     1     4     2    15
 0.0000016030     1     4     2    19
 0.0000000029     1     4     3     1
 -0.3467215307     1     4     3     2
 -0.0008888111     1     4     3    10
 0.0016313480     1     4     3    14
 -0.0005367920     1     4     3    18
 -0.5719705160     1     4     4     1
 0.0004300672     1     4     4     3
 0.0004225887     1     4     4     5
 0.0003928375     1     4     4    13
 0.0012539364     1     4     4    15
 0.0000552977     1     4     4    19
 -0.0000000007     1     4     5     1
 0.0781981817     1     4     5     2
 0.0000000001     1     4     5     5
 0.0188557668     1     4     5    10
 -0.0166275500     1     4     5    14
 0.0000000001     1     4     5    15
 0.0127483727     1     4     5    18
 0.0000000001     1     4     6     6
 0.0168645884     1     4     6     8
 -0.0069871693     1     4     6     9
 0.0000000001     1     4     6    11
 0.0132618388     1     4     6    16
 0.0177358201     1     4     6    17
 0.0000000001     1     4     7     7
 -0.0069871693     1     4     7     8
 -0.0168645884     1     4     7     9
 -0.0000000001     1     4     7    12
 -0.0177358201     1     4     7    16
 0.0132618388     1     4     7    17
 0.0167831939     1     4     8     6
 -0.0069534467     1     4     8     7
 0.0000000001     1     4     8     8
 0.0203972783     1     4     8    11
 0.0111804934     1     4     8    12
 0.0000000001     1     4     8    16
 -0.0069534467     1     4     9     6
 -0.0167831939     1     4     9     7
 0.0000000001     1     4     9     9
 -0.0111804934     1     4     9    11
 0.0203972783     1     4     9    12
 -0.0000000001     1     4     9    17
 0.0318199835     1     4    10     1
 0.0023432735     1     4    10     3
 0.0183819125     1     4    10     5
 0.0000000001     1     4    10    10
 0.0163707762     1     4    10    13
 -0.0000000001     1     4    10    14
 0.0189206252     1     4    10    15
 0.0021359779     1     4    10    19
 0.0143760169     1     4    11     8
 -0.0078800201     1     4    11     9
 0.0000000001     1     4    11    11
 0.0102826883     1     4    11    16
 0.0174127191     1     4    11    17
 0.0078800201     1     4    12     8
 0.0143760169     1     4    12     9
 0.0000000001     1     4    12    12
 0.0174127191     1     4    12    16
 -0.0102826883     1     4    12    17
 0.0000000011     1     4    13     1
 -0.1322629849     1     4    13     2
 0.0114037164     1     4    13    10
 -0.0097265791     1     4    13    14
 0.0083133695     1     4    13    18
 0.1196509332     1     4    14     1
 -0.0014838804     1     4    14     3
 -0.0115017098     1     4    14     5
 -0.0103479112     1     4    14    13
 -0.0118989743     1     4    14    15
 -0.0013323146     1     4    14    19
 -0.0000000009     1     4    15     1
 0.1041786048     1     4    15     2
 0.0137846662     1     4    15    10
 -0.0121431500     1     4    15    14
 0.0094710989     1     4    15    18
 0.0090072237     1     4    16     6
 -0.0120458785     1     4    16     7
 0.0098892534     1     4    16    11
 0.0167464757     1     4    16    12
 0.0120458785     1     4    17     6
 0.0090072237     1     4    17     7
 0.0167464757     1     4    17    11
 -0.0098892534     1     4    17    12
 0.1068764081     1     4    18     1
 0.0008781618     1     4    18     3
 0.0073400535     1     4    18     5
 0.0071217172     1     4    18    13
 0.0072812043     1     4    18    15
 0.0015574513     1     4    18    19
 -0.0031701248     1     4    19     2
 0.0004444709     1     4    19    10
 -0.0001138602     1     4    19    14
 0.0007831137     1     4    19    18
 0.0030256457     1     5     2     2
 -0.0000091831     1     5     2     4
 -0.0000905800     1     5     2    10
 0.0000775678     1     5     2    14
 -0.0000558185     1     5     2    18
 -0.0038564181     1     5     3     1
 0.0022572316     1     5     3     3
 -0.0047040003     1     5     3    13
 0.0000000001     1     5     3    14
 -0.0068562811     1     5     3    15
 -0.0002562243     1     5     3    19
 -0.0000000007     1     5     4     1
 0.0781879193     1     5     4     2
 -0.0004225887     1     5     4     4
 0.0005705747     1     5     4    10
 -0.0052208180     1     5     4    14
 0.0000000001     1     5     4    15
 0.0054759164     1     5     4    18
 -0.5362527766     1     5     5     1
 0.0176445024     1     5     5     3
 -0.0000000001     1     5     5     4
 0.0067628215     1     5     5    13
 -0.0059455271     1     5     5    15
 0.0082490465     1     5     5    19
 0.0031847281     1     5     6     6
 0.0016482891     1     5     6    11
 0.0001797611     1     5     6    12
 0.0031847281     1     5     7     7
 0.0001797611     1     5     7    11
 -0.0016482891     1     5     7    12
 0.0031159516     1     5     8     8
 0.0026881576     1     5     8    16
 0.0015966332     1     5     8    17
 0.0031159516     1     5     9     9
 0.0015966332     1     5     9    16
 -0.0026881576     1     5     9    17
 -0.0000000026     1     5    10     1
 0.3143156378     1     5    10     2
 0.0000000001     1     5    10     3
 -0.0183819125     1     5    10     4
 0.0070839561     1     5    10    10
 0.0031370284     1     5    10    14
 0.0125596978     1     5    10    18
 0.0019681011     1     5    11     6
 0.0002146397     1     5    11     7
 0.0041818501     1     5    11    11
 0.0002146397     1     5    12     6
 -0.0019681011     1     5    12     7
 0.0041818501     1     5    12    12
 -0.0974258818     1     5    13     1
 0.0095603088     1     5    13     3
 0.0125450262     1     5    13    13
 -0.0017409382     1     5    13    15
 0.0035694765     1     5    13    19
 0.0000000013     1     5    14     1
 -0.1547182582     1     5    14     2
 0.0115017098     1     5    14     4
 -0.0036780072     1     5    14    10
 -0.0062942690     1     5    14    14
 -0.0091321348     1     5    14    18
 -0.1684057744     1     5    15     1
 0.0117123502     1     5    15     3
 0.0106985023     1     5    15    13
 -0.0055501620     1     5    15    15
 0.0037420391     1     5    15    19
 0.0016482491     1     5    16     8
 0.0009789788     1     5    16     9
 0.0027939224     1     5    16    16
 0.0009789788     1     5    17     8
 -0.0016482491     1     5    17     9
 0.0027939224     1     5    17    17
 -0.0000000006     1     5    18     1
 0.0718722052     1     5    18     2
 -0.0073400535     1     5    18     4
 0.0023806575     1     5    18    10
 0.0049926504     1     5    18    14
 0.0074913861     1     5    18    18
 -0.0282560562     1     5    19     1
 0.0009112607     1     5    19     3
 -0.0032802397     1     5    19    13
 -0.0060957790     1     5    19    15
 0.0011805309     1     5    19    19
 -0.0000427487     1     6     2     8
 0.0000177112     1     6     2     9
 -0.0000313532     1     6     2    16
 -0.0000419305     1     6     2    17
 -0.0074853530     1     6     3    11
 -0.0008163469     1     6     3    12
 -0.0000000001     1     6     3    17
 0.0001420865     1     6     4     8
 -0.0000588679     1     6     4     9
 0.0000000001     1     6     4    11
 0.0043410570     1     6     4    16
 0.0058055453     1     6     4    17
 -0.0003034374     1     6     5    11
 -0.0000330926     1     6     5    12
 -0.5318822105     1     6     6     1
 0.0179458040     1     6     6     3
 -0.0000000001     1     6     6     4
 -0.0031847281     1     6     6     5
 0.0074707122     1     6     6    13
 -0.0073027359     1     6     6    15
 -0.0035615869     1     6     6    19
 -0.0000000025     1     6     8     1
 0.2988374112     1     6     8     2
 -0.0167831939     1     6     8     4
 0.0039905397     1     6     8    10
 0.0049393781     1     6     8    14
 0.0064724182     1     6     8    18
 0.0000000011     1     6     9     1
 -0.1238113573     1     6     9     2
 0.0069534467     1     6     9     4
 -0.0016533208     1     6     9    10
 -0.0020464342     1     6     9    14
 -0.0026815882     1     6     9    18
 0.0000204861     1     6    10     8
 -0.0000084876     1     6    10     9
 -0.0002149872     1     6    10    16
 -0.0002875148     1     6    10    17
 -0.2017077494     1     6    11     1
 0.0150601462     1     6    11     3
 -0.0019681011     1     6    11     5
 0.0134350604     1     6    11    13
 -0.0085513366     1     6    11    15
 -0.0011375055     1     6    11    19
 -0.0219980953     1     6    12     1
 0.0016424483     1     6    12     3
 -0.0002146397     1     6    12     5
 0.0014652176     1     6    12    13
 -0.0009326024     1     6    12    15
 -0.0001240555     1     6    12    19
 0.0018101078     1     6    13    11
 0.0001974090     1     6    13    12
 -0.0000082183     1     6    14     8
 0.0000034049     1     6    14     9
 0.0006337167     1     6    14    16
 0.0008475059     1     6    14    17
 -0.0014723451     1     6    15    11
 -0.0001605728     1     6    15    12
 -0.0000000009     1     6    16     1
 0.1109739115     1     6    16     2
 -0.0090072237     1     6    16     4
 0.0016079389     1     6    16    10
 0.0058461783     1     6    16    14
 0.0066232213     1     6    16    18
 -0.0000000013     1     6    17     1
 0.1484117970     1     6    17     2
 -0.0120458785     1     6    17     4
 0.0021503892     1     6    17    10
 0.0078184305     1     6    17    14
 0.0088576149     1     6    17    18
 -0.0002645809     1     6    18     8
 0.0001096186     1     6    18     9
 0.0020048453     1     6    18    16
 0.0026811950     1     6    18    17
 0.0033908518     1     6    19    11
 0.0003698038     1     6    19    12
 0.0000177112     1     7     2     8
 0.0000427487     1     7     2     9
 0.0000419305     1     7     2    16
 -0.0000313532     1     7     2    17
 -0.0008163469     1     7     3    11
 0.0074853530     1     7     3    12
 0.0000000001     1     7     3    16
 -0.0000588679     1     7     4     8
 -0.0001420865     1     7     4     9
 -0.0000000001     1     7     4    12
 -0.0058055453     1     7     4    16
 0.0043410570     1     7     4    17
 -0.0000330926     1     7     5    11
 0.0003034374     1     7     5    12
 -0.5318822105     1     7     7     1
 0.0179458040     1     7     7     3
 -0.0000000001     1     7     7     4
 -0.0031847281     1     7     7     5
 0.0074707122     1     7     7    13
 -0.0073027359     1     7     7    15
 -0.0035615869     1     7     7    19
 0.0000000011     1     7     8     1
 -0.1238113573     1     7     8     2
 0.0069534467     1     7     8     4
 -0.0016533208     1     7     8    10
 -0.0020464342     1     7     8    14
 -0.0026815882     1     7     8    18
 0.0000000025     1     7     9     1
 -0.2988374112     1     7     9     2
 0.0167831939     1     7     9     4
 -0.0039905397     1     7     9    10
 -0.0049393781     1     7     9    14
 -0.0064724182     1     7     9    18
 -0.0000084876     1     7    10     8
 -0.0000204861     1     7    10     9
 0.0002875148     1     7    10    16
 -0.0002149872     1     7    10    17
 -0.0219980953     1     7    11     1
 0.0016424483     1     7    11     3
 -0.0002146397     1     7    11     5
 0.0014652176     1     7    11    13
 -0.0009326024     1     7    11    15
 -0.0001240555     1     7    11    19
 0.2017077494     1     7    12     1
 -0.0150601462     1     7    12     3
 0.0019681011     1     7    12     5
 -0.0134350604     1     7    12    13
 0.0085513366     1     7    12    15
 0.0011375055     1     7    12    19
 0.0001974090     1     7    13    11
 -0.0018101078     1     7    13    12
 0.0000034049     1     7    14     8
 0.0000082183     1     7    14     9
 -0.0008475059     1     7    14    16
 0.0006337167     1     7    14    17
 -0.0001605728     1     7    15    11
 0.0014723451     1     7    15    12
 0.0000000013     1     7    16     1
 -0.1484117970     1     7    16     2
 0.0120458785     1     7    16     4
 -0.0021503892     1     7    16    10
 -0.0078184305     1     7    16    14
 -0.0088576149     1     7    16    18
 -0.0000000009     1     7    17     1
 0.1109739115     1     7    17     2
 -0.0090072237     1     7    17     4
 0.0016079389     1     7    17    10
 0.0058461783     1     7    17    14
 0.0066232213     1     7    17    18
 0.0001096186     1     7    18     8
 0.0002645809     1     7    18     9
 -0.0026811950     1     7    18    16
 0.0020048453     1     7    18    17
 0.0003698038     1     7    19    11
 -0.0033908518     1     7    19    12
 0.0000427487     1     8     2     6
 -0.0000177112     1     8     2     7
 0.0000467315     1     8     2    11
 0.0000256152     1     8     2    12
 -0.0000000001     1     8     3    11
 -0.0054421926     1     8     3    16
 -0.0032323945     1     8     3    17
 -0.0001420865     1     8     4     6
 0.0000588679     1     8     4     7
 0.0057618231     1     8     4    11
 0.0031582657     1     8     4    12
 0.0000000001     1     8     4    16
 0.0009757017     1     8     5    16
 0.0005795188     1     8     5    17
 -0.0000000025     1     8     6     1
 0.2988789150     1     8     6     2
 0.0000000001     1     8     6     3
 -0.0168645884     1     8     6     4
 0.0040318965     1     8     6    10
 0.0049591678     1     8     6    14
 0.0067905637     1     8     6    18
 0.0000000011     1     8     7     1
 -0.1238285527     1     8     7     2
 0.0069871693     1     8     7     4
 -0.0016704555     1     8     7    10
 -0.0020546333     1     8     7    14
 -0.0028133991     1     8     7    18
 -0.5466013392     1     8     8     1
 0.0182986511     1     8     8     3
 -0.0000000001     1     8     8     4
 -0.0031159516     1     8     8     5
 0.0091843540     1     8     8    13
 -0.0072236351     1     8     8    15
 -0.0037165075     1     8     8    19
 -0.0000204861     1     8    10     6
 0.0000084876     1     8    10     7
 -0.0009314480     1     8    10    11
 -0.0005105607     1     8    10    12
 -0.0000000016     1     8    11     1
 0.1866649340     1     8    11     2
 -0.0143760169     1     8    11     4
 0.0026881177     1     8    11    10
 0.0081242267     1     8    11    14
 0.0100418610     1     8    11    18
 -0.0000000008     1     8    12     1
 0.1023178705     1     8    12     2
 -0.0078800201     1     8    12     4
 0.0014734555     1     8    12    10
 0.0044531856     1     8    12    14
 0.0055043109     1     8    12    18
 0.0004925078     1     8    13    16
 0.0002925255     1     8    13    17
 0.0000082183     1     8    14     6
 -0.0000034049     1     8    14     7
 0.0008405195     1     8    14    11
 0.0004607195     1     8    14    12
 -0.0010328983     1     8    15    16
 -0.0006134907     1     8    15    17
 -0.1779616371     1     8    16     1
 0.0130786408     1     8    16     3
 -0.0016482491     1     8    16     5
 0.0106621913     1     8    16    13
 -0.0083124586     1     8    16    15
 -0.0009085563     1     8    16    19
 -0.1057004504     1     8    17     1
 0.0077680687     1     8    17     3
 -0.0009789788     1     8    17     5
 0.0063328167     1     8    17    13
 -0.0049371911     1     8    17    15
 -0.0005396377     1     8    17    19
 0.0002645809     1     8    18     6
 -0.0001096186     1     8    18     7
 0.0026557812     1     8    18    11
 0.0014557307     1     8    18    12
 0.0030762830     1     8    19    16
 0.0018271606     1     8    19    17
 -0.0000177112     1     9     2     6
 -0.0000427487     1     9     2     7
 -0.0000256152     1     9     2    11
 0.0000467315     1     9     2    12
 -0.0000000001     1     9     3    12
 -0.0032323945     1     9     3    16
 0.0054421926     1     9     3    17
 0.0000588679     1     9     4     6
 0.0001420865     1     9     4     7
 -0.0031582657     1     9     4    11
 0.0057618231     1     9     4    12
 -0.0000000001     1     9     4    17
 0.0005795188     1     9     5    16
 -0.0009757017     1     9     5    17
 0.0000000011     1     9     6     1
 -0.1238285527     1     9     6     2
 0.0069871693     1     9     6     4
 -0.0016704555     1     9     6    10
 -0.0020546333     1     9     6    14
 -0.0028133991     1     9     6    18
 0.0000000025     1     9     7     1
 -0.2988789150     1     9     7     2
 -0.0000000001     1     9     7     3
 0.0168645884     1     9     7     4
 -0.0040318965     1     9     7    10
 -0.0049591678     1     9     7    14
 -0.0067905637     1     9     7    18
 -0.5466013392     1     9     9     1
 0.0182986511     1     9     9     3
 -0.0000000001     1     9     9     4
 -0.0031159516     1     9     9     5
 0.0091843540     1     9     9    13
 -0.0072236351     1     9     9    15
 -0.0037165075     1     9     9    19
 0.0000084876     1     9    10     6
 0.0000204861     1     9    10     7
 0.0005105607     1     9    10    11
 -0.0009314480     1     9    10    12
 0.0000000008     1     9    11     1
 -0.1023178705     1     9    11     2
 0.0078800201     1     9    11     4
 -0.0014734555     1     9    11    10
 -0.0044531856     1     9    11    14
 -0.0055043109     1     9    11    18
 -0.0000000016     1     9    12     1
 0.1866649340     1     9    12     2
 -0.0143760169     1     9    12     4
 0.0026881177     1     9    12    10
 0.0081242267     1     9    12    14
 0.0100418610     1     9    12    18
 0.0002925255     1     9    13    16
 -0.0004925078     1     9    13    17
 -0.0000034049     1     9    14     6