&FCI NORB=  6,NELEC=  6,MS2=0,
 ORBSYM=1,1,1,1,1,1
 ISYM=1,
&END
 0.4368212726     1     1     2     2
 0.4368212726     1     1     3     3
 0.4345120972     1     1     4     4
 0.4345120972     1     1     5     5
 0.3534105400     1     1     6     6
 -0.4368212726     1     2     2     1
 0.0446754150     1     2     4     6
 0.0951311535     1     2     5     6
 -0.0019912709     1     2     6     4
 -0.0042401822     1     2     6     5
 -0.4368212726     1     3     3     1
 0.0951311535     1     3     4     6
 -0.0446754150     1     3     5     6
 -0.0042401822     1     3     6     4
 0.0019912709     1     3     6     5
 0.0436716303     1     4     2     6
 0.0929937096     1     4     3     6
 -0.4345120972     1     4     4     1
 0.0019912709     1     4     6     2
 0.0042401822     1     4     6     3
 0.0929937096     1     5     2     6
 -0.0436716303     1     5     3     6
 -0.4345120972     1     5     5     1
 0.0042401822     1     5     6     2
 -0.0019912709     1     5     6     3
 -0.0436716303     1     6     2     4
 -0.0929937096     1     6     2     5
 -0.0929937096     1     6     3     4
 0.0436716303     1     6     3     5
 -0.0446754150     1     6     4     2
 -0.0951311535     1     6     4     3
 -0.0951311535     1     6     5     2
 0.0446754150     1     6     5     3
 -0.3534105400     1     6     6     1
 -0.4368212726     2     1     1     2
 -0.0019912709     2     1     4     6
 -0.0042401822     2     1     5     6
 0.0446754150     2     1     6     4
 0.0951311535     2     1     6     5
 0.4368212726     2     2     1     1
 0.4324976145     2     2     3     3
 0.4044004906     2     2     4     4
 -0.0470483262     2     2     4     5
 -0.0470483262     2     2     5     4
 0.3263112927     2     2     5     5
 0.4272898851     2     2     6     6
 -0.4324976145     2     3     3     2
 -0.0470483262     2     3     4     4
 -0.1024835934     2     3     4     5
 0.0243943955     2     3     5     4
 0.0470483262     2     3     5     5
 -0.0436716303     2     4     1     6
 -0.1186287613     2     4     3     5
 -0.4044004906     2     4     4     2
 0.0470483262     2     4     4     3
 0.0470483262     2     4     5     2
 -0.0243943955     2     4     5     3
 -0.0446754150     2     4     6     1
 -0.0929937096     2     5     1     6
 0.1186287613     2     5     3     4
 0.0470483262     2     5     4     2
 0.1024835934     2     5     4     3
 -0.3263112927     2     5     5     2
 -0.0470483262     2     5     5     3
 -0.0951311535     2     5     6     1
 0.0436716303     2     6     1     4
 0.0929937096     2     6     1     5
 0.0019912709     2     6     4     1
 0.0042401822     2     6     5     1
 -0.4272898851     2     6     6     2
 -0.4368212726     3     1     1     3
 -0.0042401822     3     1     4     6
 0.0019912709     3     1     5     6
 0.0951311535     3     1     6     4
 -0.0446754150     3     1     6     5
 -0.4324976145     3     2     2     3
 -0.0470483262     3     2     4     4
 0.0243943955     3     2     4     5
 -0.1024835934     3     2     5     4
 0.0470483262     3     2     5     5
 0.4368212726     3     3     1     1
 0.4324976145     3     3     2     2
 0.3263112927     3     3     4     4
 0.0470483262     3     3     4     5
 0.0470483262     3     3     5     4
 0.4044004906     3     3     5     5
 0.4272898851     3     3     6     6
 -0.0929937096     3     4     1     6
 0.1186287613     3     4     2     5
 0.0470483262     3     4     4     2
 -0.3263112927     3     4     4     3
 0.1024835934     3     4     5     2
 -0.0470483262     3     4     5     3
 -0.0951311535     3     4     6     1
 0.0436716303     3     5     1     6
 -0.1186287613     3     5     2     4
 -0.0243943955     3     5     4     2
 -0.0470483262     3     5     4     3
 -0.0470483262     3     5     5     2
 -0.4044004906     3     5     5     3
 0.0446754150     3     5     6     1
 0.0929937096     3     6     1     4
 -0.0436716303     3     6     1     5
 0.0042401822     3     6     4     1
 -0.0019912709     3     6     5     1
 -0.4272898851     3     6     6     3
 -0.4345120972     4     1     1     4
 0.0019912709     4     1     2     6
 0.0042401822     4     1     3     6
 0.0436716303     4     1     6     2
 0.0929937096     4     1     6     3
 -0.0446754150     4     2     1     6
 -0.4044004906     4     2     2     4
 0.0470483262     4     2     2     5
 0.0470483262     4     2     3     4
 -0.0243943955     4     2     3     5
 -0.1186287613     4     2     5     3
 -0.0436716303     4     2     6     1
 -0.0951311535     4     3     1     6
 0.0470483262     4     3     2     4
 0.1024835934     4     3     2     5
 -0.3263112927     4     3     3     4
 -0.0470483262     4     3     3     5
 0.1186287613     4     3     5     2
 -0.0929937096     4     3     6     1
 0.4345120972     4     4     1     1
 0.4044004906     4     4     2     2
 -0.0470483262     4     4     2     3
 -0.0470483262     4     4     3     2
 0.3263112927     4     4     3     3
 0.4130988449     4     4     5     5
 0.4095900534     4     4     6     6
 -0.0470483262     4     5     2     2
 -0.1024835934     4     5     2     3
 0.0243943955     4     5     3     2
 0.0470483262     4     5     3     3
 -0.4130988449     4     5     5     4
 0.0446754150     4     6     1     2
 0.0951311535     4     6     1     3
 -0.0019912709     4     6     2     1
 -0.0042401822     4     6     3     1
 -0.4095900534     4     6     6     4
 -0.4345120972     5     1     1     5
 0.0042401822     5     1     2     6
 -0.0019912709     5     1     3     6
 0.0929937096     5     1     6     2
 -0.0436716303     5     1     6     3
 -0.0951311535     5     2     1     6
 0.0470483262     5     2     2     4
 -0.3263112927     5     2     2     5
 0.1024835934     5     2     3     4
 -0.0470483262     5     2     3     5
 0.1186287613     5     2     4     3
 -0.0929937096     5     2     6     1
 0.0446754150     5     3     1     6
 -0.0243943955     5     3     2     4
 -0.0470483262     5     3     2     5
 -0.0470483262     5     3     3     4
 -0.4044004906     5     3     3     5
 -0.1186287613     5     3     4     2
 0.0436716303     5     3     6     1
 -0.0470483262     5     4     2     2
 0.0243943955     5     4     2     3
 -0.1024835934     5     4     3     2
 0.0470483262     5     4     3     3
 -0.4130988449     5     4     4     5
 0.4345120972     5     5     1     1
 0.3263112927     5     5     2     2
 0.0470483262     5     5     2     3
 0.0470483262     5     5     3     2
 0.4044004906     5     5     3     3
 0.4130988449     5     5     4     4
 0.4095900534     5     5     6     6
 0.0951311535     5     6     1     2
 -0.0446754150     5     6     1     3
 -0.0042401822     5     6     2     1
 0.0019912709     5     6     3     1
 -0.4095900534     5     6     6     5
 -0.3534105400     6     1     1     6
 -0.0446754150     6     1     2     4
 -0.0951311535     6     1     2     5
 -0.0951311535     6     1     3     4
 0.0446754150     6     1     3     5
 -0.0436716303     6     1     4     2
 -0.0929937096     6     1     4     3
 -0.0929937096     6     1     5     2
 0.0436716303     6     1     5     3
 0.0019912709     6     2     1     4
 0.0042401822     6     2     1     5
 -0.4272898851     6     2     2     6
 0.0436716303     6     2     4     1
 0.0929937096     6     2     5     1
 0.0042401822     6     3     1     4
 -0.0019912709     6     3     1     5
 -0.4272898851     6     3     3     6
 0.0929937096     6     3     4     1
 -0.0436716303     6     3     5     1
 -0.0019912709     6     4     1     2
 -0.0042401822     6     4     1     3
 0.0446754150     6     4     2     1
 0.0951311535     6     4     3     1
 -0.4095900534     6     4     4     6
 -0.0042401822     6     5     1     2
 0.0019912709     6     5     1     3
 0.0951311535     6     5     2     1
 -0.0446754150     6     5     3     1
 -0.4095900534     6     5     5     6
 0.3534105400     6     6     1     1
 0.4272898851     6     6     2     2
 0.4272898851     6     6     3     3
 0.4095900534     6     6     4     4
 0.4095900534     6     6     5     5
0.0 0 0 0 0
 0.4368212726     1     1     2     2
 0.4368212726     1     1     3     3
 0.4345120972     1     1     4     4
 0.4345120972     1     1     5     5
 0.3534105400     1     1     6     6
 -0.4368212726     1     2     2     1
 0.0446754150     1     2     4     6
 0.0951311535     1     2     5     6
 -0.0019912709     1     2     6     4
 -0.0042401822     1     2     6     5
 -0.4368212726     1     3     3     1
 0.0951311535     1     3     4     6
 -0.0446754150     1     3     5     6
 -0.0042401822     1     3     6     4
 0.0019912709     1     3     6     5
 0.0436716303     1     4     2     6
 0.0929937096     1     4     3     6
 -0.4345120972     1     4     4     1
 0.0019912709     1     4     6     2
 0.0042401822     1     4     6     3
 0.0929937096     1     5     2     6
 -0.0436716303     1     5     3     6
 -0.4345120972     1     5     5     1
 0.0042401822     1     5     6     2
 -0.0019912709     1     5     6     3
 -0.0436716303     1     6     2     4
 -0.0929937096     1     6     2     5
 -0.0929937096     1     6     3     4
 0.0436716303     1     6     3     5
 -0.0446754150     1     6     4     2
 -0.0951311535     1     6     4     3
 -0.0951311535     1     6     5     2
 0.0446754150     1     6     5     3
 -0.3534105400     1     6     6     1
 -0.4368212726     2     1     1     2
 -0.0019912709     2     1     4     6
 -0.0042401822     2     1     5     6
 0.0446754150     2     1     6     4
 0.0951311535     2     1     6     5
 0.4368212726     2     2     1     1
 0.4324976145     2     2     3     3
 0.4044004906     2     2     4     4
 -0.0470483262     2     2     4     5
 -0.0470483262     2     2     5     4
 0.3263112927     2     2     5     5
 0.4272898851     2     2     6     6
 -0.4324976145     2     3     3     2
 -0.0470483262     2     3     4     4
 -0.1024835934     2     3     4     5
 0.0243943955     2     3     5     4
 0.0470483262     2     3     5     5
 -0.0436716303     2     4     1     6
 -0.1186287613     2     4     3     5
 -0.4044004906     2     4     4     2
 0.0470483262     2     4     4     3
 0.0470483262     2     4     5     2
 -0.0243943955     2     4     5     3
 -0.0446754150     2     4     6     1
 -0.0929937096     2     5     1     6
 0.1186287613     2     5     3     4
 0.0470483262     2     5     4     2
 0.1024835934     2     5     4     3
 -0.3263112927     2     5     5     2
 -0.0470483262     2     5     5     3
 -0.0951311535     2     5     6     1
 0.0436716303     2     6     1     4
 0.0929937096     2     6     1     5
 0.0019912709     2     6     4     1
 0.0042401822     2     6     5     1
 -0.4272898851     2     6     6     2
 -0.4368212726     3     1     1     3
 -0.0042401822     3     1     4     6
 0.0019912709     3     1     5     6
 0.0951311535     3     1     6     4
 -0.0446754150     3     1     6     5
 -0.4324976145     3     2     2     3
 -0.0470483262     3     2     4     4
 0.0243943955     3     2     4     5
 -0.1024835934     3     2     5     4
 0.0470483262     3     2     5     5
 0.4368212726     3     3     1     1
 0.4324976145     3     3     2     2
 0.3263112927     3     3     4     4
 0.0470483262     3     3     4     5
 0.0470483262     3     3     5     4
 0.4044004906     3     3     5     5
 0.4272898851     3     3     6     6
 -0.0929937096     3     4     1     6
 0.1186287613     3     4     2     5
 0.0470483262     3     4     4     2
 -0.3263112927     3     4     4     3
 0.1024835934     3     4     5     2
 -0.0470483262     3     4     5     3
 -0.0951311535     3     4     6     1
 0.0436716303     3     5     1     6
 -0.1186287613     3     5     2     4
 -0.0243943955     3     5     4     2
 -0.0470483262     3     5     4     3
 -0.0470483262     3     5     5     2
 -0.4044004906     3     5     5     3
 0.0446754150     3     5     6     1
 0.0929937096     3     6     1     4
 -0.0436716303     3     6     1     5
 0.0042401822     3     6     4     1
 -0.0019912709     3     6     5     1
 -0.4272898851     3     6     6     3
 -0.4345120972     4     1     1     4
 0.0019912709     4     1     2     6
 0.0042401822     4     1     3     6
 0.0436716303     4     1     6     2
 0.0929937096     4     1     6     3
 -0.0446754150     4     2     1     6
 -0.4044004906     4     2     2     4
 0.0470483262     4     2     2     5
 0.0470483262     4     2     3     4
 -0.0243943955     4     2     3     5
 -0.1186287613     4     2     5     3
 -0.0436716303     4     2     6     1
 -0.0951311535     4     3     1     6
 0.0470483262     4     3     2     4
 0.1024835934     4     3     2     5
 -0.3263112927     4     3     3     4
 -0.0470483262     4     3     3     5
 0.1186287613     4     3     5     2
 -0.0929937096     4     3     6     1
 0.4345120972     4     4     1     1
 0.4044004906     4     4     2     2
 -0.0470483262     4     4     2     3
 -0.0470483262     4     4     3     2
 0.3263112927     4     4     3     3
 0.4130988449     4     4     5     5
 0.4095900534     4     4     6     6
 -0.0470483262     4     5     2     2
 -0.1024835934     4     5     2     3
 0.0243943955     4     5     3     2
 0.0470483262     4     5     3     3
 -0.4130988449     4     5     5     4
 0.0446754150     4     6     1     2
 0.0951311535     4     6     1     3
 -0.0019912709     4     6     2     1
 -0.0042401822     4     6     3     1
 -0.4095900534     4     6     6     4
 -0.4345120972     5     1     1     5
 0.0042401822     5     1     2     6
 -0.0019912709     5     1     3     6
 0.0929937096     5     1     6     2
 -0.0436716303     5     1     6     3
 -0.0951311535     5     2     1     6
 0.0470483262     5     2     2     4
 -0.3263112927     5     2     2     5
 0.1024835934     5     2     3     4
 -0.0470483262     5     2     3     5
 0.1186287613     5     2     4     3
 -0.0929937096     5     2     6     1
 0.0446754150     5     3     1     6
 -0.0243943955     5     3     2     4
 -0.0470483262     5     3     2     5
 -0.0470483262     5     3     3     4
 -0.4044004906     5     3     3     5
 -0.1186287613     5     3     4     2
 0.0436716303     5     3     6     1
 -0.0470483262     5     4     2     2
 0.0243943955     5     4     2     3
 -0.1024835934     5     4     3     2
 0.0470483262     5     4     3     3
 -0.4130988449     5     4     4     5
 0.4345120972     5     5     1     1
 0.3263112927     5     5     2     2
 0.0470483262     5     5     2     3
 0.0470483262     5     5     3     2
 0.4044004906     5     5     3     3
 0.4130988449     5     5     4     4
 0.4095900534     5     5     6     6
 0.0951311535     5     6     1     2
 -0.0446754150     5     6     1     3
 -0.0042401822     5     6     2     1
 0.0019912709     5     6     3     1
 -0.4095900534     5     6     6     5
 -0.3534105400     6     1     1     6
 -0.0446754150     6     1     2     4
 -0.0951311535     6     1     2     5
 -0.0951311535     6     1     3     4
 0.0446754150     6     1     3     5
 -0.0436716303     6     1     4     2
 -0.0929937096     6     1     4     3
 -0.0929937096     6     1     5     2
 0.0436716303     6     1     5     3
 0.0019912709     6     2     1     4
 0.0042401822     6     2     1     5
 -0.4272898851     6     2     2     6
 0.0436716303     6     2     4     1
 0.0929937096     6     2     5     1
 0.0042401822     6     3     1     4
 -0.0019912709     6     3     1     5
 -0.4272898851     6     3     3     6
 0.0929937096     6     3     4     1
 -0.0436716303     6     3     5     1
 -0.0019912709     6     4     1     2
 -0.0042401822     6     4     1     3
 0.0446754150     6     4     2     1
 0.0951311535     6     4     3     1
 -0.4095900534     6     4     4     6
 -0.0042401822     6     5     1     2
 0.0019912709     6     5     1     3
 0.0951311535     6     5     2     1
 -0.0446754150     6     5     3     1
 -0.4095900534     6     5     5     6
 0.3534105400     6     6     1     1
 0.4272898851     6     6     2     2
 0.4272898851     6     6     3     3
 0.4095900534     6     6     4     4
 0.4095900534     6     6     5     5
0.0 0 0 0 0
 0.5034564457     1     1     1     1
 0.4545773704     1     1     2     2
 0.4545773704     1     1     3     3
 0.4592593774     1     1     4     4
 0.4592593774     1     1     5     5
 0.4822308312     1     1     6     6
 0.0160526094     1     2     1     2
 0.0177560978     1     2     2     1
 -0.0050010419     1     2     4     6
 -0.0106491431     1     2     5     6
 -0.0052993884     1     2     6     4
 -0.0112844376     1     2     6     5
 0.0160526094     1     3     1     3
 0.0177560978     1     3     3     1
 -0.0106491431     1     3     4     6
 0.0050010419     1     3     5     6
 -0.0112844376     1     3     6     4
 0.0052993884     1     3     6     5
 0.0216001434     1     4     1     4
 -0.0047418921     1     4     2     6
 -0.0100973133     1     4     3     6
 0.0247472802     1     4     4     1
 -0.0033081175     1     4     6     2
 -0.0070442554     1     4     6     3
 0.0216001434     1     5     1     5
 -0.0100973133     1     5     2     6
 0.0047418921     1     5     3     6
 0.0247472802     1     5     5     1
 -0.0070442554     1     5     6     2
 0.0033081175     1     5     6     3
 0.1270779492     1     6     1     6
 -0.0484135224     1     6     2     4
 -0.1030910229     1     6     2     5
 -0.1030910229     1     6     3     4
 0.0484135224     1     6     3     5
 -0.0496764569     1     6     4     2
 -0.1057802966     1     6     4     3
 -0.1057802966     1     6     5     2
 0.0496764569     1     6     5     3
 0.1288202912     1     6     6     1
 0.0177560978     2     1     1     2
 0.0160526094     2     1     2     1
 -0.0052993884     2     1     4     6
 -0.0112844376     2     1     5     6
 -0.0050010419     2     1     6     4
 -0.0106491431     2     1     6     5
 0.4545773704     2     2     1     1
 0.4771124504     2     2     2     2
 0.4477919284     2     2     3     3
 0.4502070400     2     2     4     4
 0.0134546302     2     2     4     5
 0.0134546302     2     2     5     4
 0.4725385737     2     2     5     5
 0.4519851035     2     2     6     6
 0.0140262081     2     3     2     3
 0.0152943139     2     3     3     2
 0.0134546302     2     3     4     4
 0.0095475020     2     3     4     5
 0.0127840317     2     3     5     4
 -0.0134546302     2     3     5     5
 -0.0484135224     2     4     1     6
 0.0456463454     2     4     2     4
 0.0602273134     2     4     2     5
 0.0602273134     2     4     3     4
 -0.0093327662     2     4     3     5
 0.0458065494     2     4     4     2
 0.0605029564     2     4     4     3
 0.0605029564     2     4     5     2
 -0.0116103638     2     4     5     3
 -0.0496764569     2     4     6     1
 -0.1030910229     2     5     1     6
 0.0602273134     2     5     2     4
 0.1456095743     2     5     2     5
 0.1092959951     2     5     3     4
 -0.0602273134     2     5     3     5
 0.0605029564     2     5     4     2
 0.1120310954     2     5     4     3
 0.1462272810     2     5     5     2
 -0.0605029564     2     5     5     3
 -0.1057802966     2     5     6     1
 -0.0047418921     2     6     1     4
 -0.0100973133     2     6     1     5
 0.0226214455     2     6     2     6
 -0.0033081175     2     6     4     1
 -0.0070442554     2     6     5     1
 0.0246952184     2     6     6     2
 0.0177560978     3     1     1     3
 0.0160526094     3     1     3     1
 -0.0112844376     3     1     4     6
 0.0052993884     3     1     5     6
 -0.0106491431     3     1     6     4
 0.0050010419     3     1     6     5
 0.0152943139     3     2     2     3
 0.0140262081     3     2     3     2
 0.0134546302     3     2     4     4
 0.0127840317     3     2     4     5
 0.0095475020     3     2     5     4
 -0.0134546302     3     2     5     5
 0.4545773704     3     3     1     1
 0.4477919284     3     3     2     2
 0.4771124504     3     3     3     3
 0.4725385737     3     3     4     4
 -0.0134546302     3     3     4     5
 -0.0134546302     3     3     5     4
 0.4502070400     3     3     5     5
 0.4519851035     3     3     6     6
 -0.1030910229     3     4     1     6
 0.0602273134     3     4     2     4
 0.1092959951     3     4     2     5
 0.1456095743     3     4     3     4
 -0.0602273134     3     4     3     5
 0.0605029564     3     4     4     2
 0.1462272810     3     4     4     3
 0.1120310954     3     4     5     2
 -0.0605029564     3     4     5     3
 -0.1057802966     3     4     6     1
 0.0484135224     3     5     1     6
 -0.0093327662     3     5     2     4
 -0.0602273134     3     5     2     5
 -0.0602273134     3     5     3     4
 0.0456463454     3     5     3     5
 -0.0116103638     3     5     4     2
 -0.0605029564     3     5     4     3
 -0.0605029564     3     5     5     2
 0.0458065494     3     5     5     3
 0.0496764569     3     5     6     1
 -0.0100973133     3     6     1     4
 0.0047418921     3     6     1     5
 0.0226214455     3     6     3     6
 -0.0070442554     3     6     4     1
 0.0033081175     3     6     5     1
 0.0246952184     3     6     6     3
 0.0247472802     4     1     1     4
 -0.0033081175     4     1     2     6
 -0.0070442554     4     1     3     6
 0.0216001434     4     1     4     1
 -0.0047418921     4     1     6     2
 -0.0100973133     4     1     6     3
 -0.0496764569     4     2     1     6
 0.0458065494     4     2     2     4
 0.0605029564     4     2     2     5
 0.0605029564     4     2     3     4
 -0.0116103638     4     2     3     5
 0.0456463454     4     2     4     2
 0.0602273134     4     2     4     3
 0.0602273134     4     2     5     2
 -0.0093327662     4     2     5     3
 -0.0484135224     4     2     6     1
 -0.1057802966     4     3     1     6
 0.0605029564     4     3     2     4
 0.1120310954     4     3     2     5
 0.1462272810     4     3     3     4
 -0.0605029564     4     3     3     5
 0.0602273134     4     3     4     2
 0.1456095743     4     3     4     3
 0.1092959951     4     3     5     2
 -0.0602273134     4     3     5     3
 -0.1030910229     4     3     6     1
 0.4592593774     4     4     1     1
 0.4502070400     4     4     2     2
 0.0134546302     4     4     2     3
 0.0134546302     4     4     3     2
 0.4725385737     4     4     3     3
 0.4616942520     4     4     4     4
 0.4307669739     4     4     5     5
 0.4289674652     4     4     6     6
 0.0134546302     4     5     2     2
 0.0095475020     4     5     2     3
 0.0127840317     4     5     3     2
 -0.0134546302     4     5     3     3
 0.0132591491     4     5     4     5
 0.0176681290     4     5     5     4
 -0.0050010419     4     6     1     2
 -0.0106491431     4     6     1     3
 -0.0052993884     4     6     2     1
 -0.0112844376     4     6     3     1
 0.0187704052     4     6     4     6
 0.0193774118     4     6     6     4
 0.0247472802     5     1     1     5
 -0.0070442554     5     1     2     6
 0.0033081175     5     1     3     6
 0.0216001434     5     1     5     1
 -0.0100973133     5     1     6     2
 0.0047418921     5     1     6     3
 -0.1057802966     5     2     1     6
 0.0605029564     5     2     2     4
 0.1462272810     5     2     2     5
 0.1120310954     5     2     3     4
 -0.0605029564     5     2     3     5
 0.0602273134     5     2     4     2
 0.1092959951     5     2     4     3
 0.1456095743     5     2     5     2
 -0.0602273134     5     2     5     3
 -0.1030910229     5     2     6     1
 0.0496764569     5     3     1     6
 -0.0116103638     5     3     2     4
 -0.0605029564     5     3     2     5
 -0.0605029564     5     3     3     4
 0.0458065494     5     3     3     5
 -0.0093327662     5     3     4     2
 -0.0602273134     5     3     4     3
 -0.0602273134     5     3     5     2
 0.0456463454     5     3     5     3
 0.0484135224     5     3     6     1
 0.0134546302     5     4     2     2
 0.0127840317     5     4     2     3
 0.0095475020     5     4     3     2
 -0.0134546302     5     4     3     3
 0.0176681290     5     4     4     5
 0.0132591491     5     4     5     4
 0.4592593774     5     5     1     1
 0.4725385737     5     5     2     2
 -0.0134546302     5     5     2     3
 -0.0134546302     5     5     3     2
 0.4502070400     5     5     3     3
 0.4307669739     5     5     4     4
 0.4616942520     5     5     5     5
 0.4289674652     5     5     6     6
 -0.0106491431     5     6     1     2
 0.0050010419     5     6     1     3
 -0.0112844376     5     6     2     1
 0.0052993884     5     6     3     1
 0.0187704052     5     6     5     6
 0.0193774118     5     6     6     5
 0.1288202912     6     1     1     6
 -0.0496764569     6     1     2     4
 -0.1057802966     6     1     2     5
 -0.1057802966     6     1     3     4
 0.0496764569     6     1     3     5
 -0.0484135224     6     1     4     2
 -0.1030910229     6     1     4     3
 -0.1030910229     6     1     5     2
 0.0484135224     6     1     5     3
 0.1270779492     6     1     6     1
 -0.0033081175     6     2     1     4
 -0.0070442554     6     2     1     5
 0.0246952184     6     2     2     6
 -0.0047418921     6     2     4     1
 -0.0100973133     6     2     5     1
 0.0226214455     6     2     6     2
 -0.0070442554     6     3     1     4
 0.0033081175     6     3     1     5
 0.0246952184     6     3     3     6
 -0.0100973133     6     3     4     1
 0.0047418921     6     3     5     1
 0.0226214455     6     3     6     3
 -0.0052993884     6     4     1     2
 -0.0112844376     6     4     1     3
 -0.0050010419     6     4     2     1
 -0.0106491431     6     4     3     1
 0.0193774118     6     4     4     6
 0.0187704052     6     4     6     4
 -0.0112844376     6     5     1     2
 0.0052993884     6     5     1     3
 -0.0106491431     6     5     2     1
 0.0050010419     6     5     3     1
 0.0193774118     6     5     5     6
 0.0187704052     6     5     6     5
 0.4822308312     6     6     1     1
 0.4519851035     6     6     2     2
 0.4519851035     6     6     3     3
 0.4289674652     6     6     4     4
 0.4289674652     6     6     5     5
 0.4607341591     6     6     6     6
0.0 0 0 0 0
 -2.8600545989     1     1     0     0
 -2.7370706440     2     2     0     0
 -2.7370706440     3     3     0     0
 -2.5131902673     4     4     0     0
 -2.5131902673     5     5     0     0
 -2.3415617082     6     6     0     0
0.0 0 0 0 0
 -2.8600545989     1     1     0     0
 -2.7370706440     2     2     0     0
 -2.7370706440     3     3     0     0
 -2.5131902673     4     4     0     0
 -2.5131902673     5     5     0     0
 -2.3415617082     6     6     0     0
-99.0095590364 0 0 0 0
