&FCI NORB=  7,NELEC=  6,MS2=0,
 ORBSYM=1,1,1,1,1,1,1
 ISYM=1,
&END
 0.2696804626     1     1     2     2
 -0.0000000085     1     1     2     3
 -0.0000000085     1     1     3     2
 0.2666062532     1     1     3     3
 0.2567296287     1     1     4     4
 0.0000000110     1     1     4     5
 0.0000000110     1     1     5     4
 0.2607492040     1     1     5     5
 0.1895681209     1     1     6     6
 0.1850620100     1     1     7     7
 -0.2696804626     1     2     2     1
 0.0008722484     1     2     2     6
 0.0000000085     1     2     3     1
 0.0000000027     1     2     3     6
 -0.0000000015     1     2     4     7
 -0.0038454121     1     2     5     7
 -0.0000000004     1     2     7     4
 -0.0002135534     1     2     7     5
 0.0000000085     1     3     2     1
 0.0000000026     1     3     2     6
 -0.2666062532     1     3     3     1
 -0.0009274970     1     3     3     6
 0.0005749404     1     3     4     7
 0.0000000048     1     3     5     7
 0.0001936389     1     3     7     4
 -0.0000000003     1     3     7     5
 -0.0000000004     1     4     2     7
 0.0001244248     1     4     3     7
 -0.2567296287     1     4     4     1
 -0.0002628423     1     4     4     6
 -0.0000000110     1     4     5     1
 -0.0000000007     1     4     5     6
 0.0000000004     1     4     7     2
 -0.0001936389     1     4     7     3
 -0.0029359321     1     5     2     7
 0.0000000052     1     5     3     7
 -0.0000000110     1     5     4     1
 -0.0000000008     1     5     4     6
 -0.2607492040     1     5     5     1
 0.0003169347     1     5     5     6
 0.0002135534     1     5     7     2
 0.0000000003     1     5     7     3
 -0.0008722484     1     6     2     2
 -0.0000000026     1     6     2     3
 -0.0000000027     1     6     3     2
 0.0009274970     1     6     3     3
 0.0002628423     1     6     4     4
 0.0000000008     1     6     4     5
 0.0000000007     1     6     5     4
 -0.0003169347     1     6     5     5
 -0.1895681209     1     6     6     1
 -0.0009377730     1     6     7     7
 0.0000000004     1     7     2     4
 0.0029359321     1     7     2     5
 -0.0001244248     1     7     3     4
 -0.0000000052     1     7     3     5
 0.0000000015     1     7     4     2
 -0.0005749404     1     7     4     3
 0.0038454121     1     7     5     2
 -0.0000000048     1     7     5     3
 -0.1850620100     1     7     7     1
 0.0009377730     1     7     7     6
 -0.2696804626     2     1     1     2
 0.0000000085     2     1     1     3
 -0.0000000004     2     1     4     7
 -0.0002135534     2     1     5     7
 0.0008722484     2     1     6     2
 0.0000000027     2     1     6     3
 -0.0000000015     2     1     7     4
 -0.0038454121     2     1     7     5
 0.2696804626     2     2     1     1
 -0.0008722484     2     2     1     6
 0.2505085356     2     2     3     3
 0.2309246146     2     2     4     4
 -0.0000000006     2     2     4     5
 -0.0000000006     2     2     5     4
 0.2407005992     2     2     5     5
 -0.0008722484     2     2     6     1
 0.1878710043     2     2     6     6
 0.1843831072     2     2     7     7
 -0.0000000085     2     3     1     1
 -0.0000000026     2     3     1     6
 -0.2505085356     2     3     3     2
 0.0000000006     2     3     4     4
 -0.0273576912     2     3     4     5
 0.0175398063     2     3     5     4
 -0.0000000006     2     3     5     5
 -0.0000000027     2     3     6     1
 0.0000000118     2     3     7     7
 0.0000000004     2     4     1     7
 -0.0447388747     2     4     3     5
 -0.2309246146     2     4     4     2
 -0.0000000006     2     4     4     3
 0.0000000006     2     4     5     2
 -0.0175398063     2     4     5     3
 0.0000000200     2     4     6     7
 0.0000000015     2     4     7     1
 0.0000000199     2     4     7     6
 0.0029359321     2     5     1     7
 0.0447388747     2     5     3     4
 0.0000000006     2     5     4     2
 0.0273576912     2     5     4     3
 -0.2407005992     2     5     5     2
 0.0000000006     2     5     5     3
 0.0246790660     2     5     6     7
 0.0038454121     2     5     7     1
 0.0244631914     2     5     7     6
 0.0008722484     2     6     1     2
 0.0000000026     2     6     1     3
 0.0000000001     2     6     4     7
 0.0001074510     2     6     5     7
 -0.1878710043     2     6     6     2
 -0.0000000199     2     6     7     4
 -0.0244631914     2     6     7     5
 -0.0000000004     2     7     1     4
 -0.0029359321     2     7     1     5
 0.0000000004     2     7     4     1
 -0.0000000001     2     7     4     6
 0.0002135534     2     7     5     1
 -0.0001074510     2     7     5     6
 -0.0000000200     2     7     6     4
 -0.0246790660     2     7     6     5
 -0.1843831072     2     7     7     2
 -0.0000000118     2     7     7     3
 0.0000000085     3     1     1     2
 -0.2666062532     3     1     1     3
 0.0001936389     3     1     4     7
 -0.0000000003     3     1     5     7
 0.0000000026     3     1     6     2
 -0.0009274970     3     1     6     3
 0.0005749404     3     1     7     4
 0.0000000048     3     1     7     5
 -0.0000000085     3     2     1     1
 -0.0000000027     3     2     1     6
 -0.2505085356     3     2     2     3
 0.0000000006     3     2     4     4
 0.0175398063     3     2     4     5
 -0.0273576912     3     2     5     4
 -0.0000000006     3     2     5     5
 -0.0000000026     3     2     6     1
 0.0000000118     3     2     7     7
 0.2666062532     3     3     1     1
 0.0009274970     3     3     1     6
 0.2505085356     3     3     2     2
 0.2407534624     3     3     4     4
 0.0000000006     3     3     4     5
 0.0000000006     3     3     5     4
 0.2309275030     3     3     5     5
 0.0009274970     3     3     6     1
 0.1878706608     3     3     6     6
 0.1694595991     3     3     7     7
 -0.0001244248     3     4     1     7
 0.0447388747     3     4     2     5
 -0.0000000006     3     4     4     2
 -0.2407534624     3     4     4     3
 0.0273576912     3     4     5     2
 -0.0000000006     3     4     5     3
 0.0247168145     3     4     6     7
 -0.0005749404     3     4     7     1
 0.0244993964     3     4     7     6
 -0.0000000052     3     5     1     7
 -0.0447388747     3     5     2     4
 -0.0175398063     3     5     4     2
 -0.0000000006     3     5     4     3
 0.0000000006     3     5     5     2
 -0.2309275030     3     5     5     3
 -0.0000000200     3     5     6     7
 -0.0000000048     3     5     7     1
 -0.0000000198     3     5     7     6
 0.0000000027     3     6     1     2
 -0.0009274970     3     6     1     3
 0.0001101197     3     6     4     7
 -0.0000000001     3     6     5     7
 -0.1878706608     3     6     6     3
 -0.0244993964     3     6     7     4
 0.0000000198     3     6     7     5
 0.0001244248     3     7     1     4
 0.0000000052     3     7     1     5
 -0.0001936389     3     7     4     1
 -0.0001101197     3     7     4     6
 0.0000000003     3     7     5     1
 0.0000000001     3     7     5     6
 -0.0247168145     3     7     6     4
 0.0000000200     3     7     6     5
 -0.0000000118     3     7     7     2
 -0.1694595991     3     7     7     3
 -0.2567296287     4     1     1     4
 -0.0000000110     4     1     1     5
 0.0000000004     4     1     2     7
 -0.0001936389     4     1     3     7
 -0.0002628423     4     1     6     4
 -0.0000000007     4     1     6     5
 -0.0000000004     4     1     7     2
 0.0001244248     4     1     7     3
 0.0000000015     4     2     1     7
 -0.2309246146     4     2     2     4
 0.0000000006     4     2     2     5
 -0.0000000006     4     2     3     4
 -0.0175398063     4     2     3     5
 -0.0447388747     4     2     5     3
 0.0000000199     4     2     6     7
 0.0000000004     4     2     7     1
 0.0000000200     4     2     7     6
 -0.0005749404     4     3     1     7
 -0.0000000006     4     3     2     4
 0.0273576912     4     3     2     5
 -0.2407534624     4     3     3     4
 -0.0000000006     4     3     3     5
 0.0447388747     4     3     5     2
 0.0244993964     4     3     6     7
 -0.0001244248     4     3     7     1
 0.0247168145     4     3     7     6
 0.2567296287     4     4     1     1
 0.0002628423     4     4     1     6
 0.2309246146     4     4     2     2
 0.0000000006     4     4     2     3
 0.0000000006     4     4     3     2
 0.2407534624     4     4     3     3
 0.2438372655     4     4     5     5
 0.0002628423     4     4     6     1
 0.1843826025     4     4     6     6
 0.1699454626     4     4     7     7
 0.0000000110     4     5     1     1
 0.0000000008     4     5     1     6
 -0.0000000006     4     5     2     2
 -0.0273576912     4     5     2     3
 0.0175398063     4     5     3     2
 0.0000000006     4     5     3     3
 -0.2438372655     4     5     5     4
 0.0000000007     4     5     6     1
 -0.0000000082     4     5     7     7
 -0.0002628423     4     6     1     4
 -0.0000000008     4     6     1     5
 -0.0000000001     4     6     2     7
 -0.0001101197     4     6     3     7
 -0.1843826025     4     6     6     4
 -0.0000000200     4     6     7     2
 -0.0247168145     4     6     7     3
 -0.0000000015     4     7     1     2
 0.0005749404     4     7     1     3
 -0.0000000004     4     7     2     1
 0.0000000001     4     7     2     6
 0.0001936389     4     7     3     1
 0.0001101197     4     7     3     6
 -0.0000000199     4     7     6     2
 -0.0244993964     4     7     6     3
 -0.1699454626     4     7     7     4
 0.0000000082     4     7     7     5
 -0.0000000110     5     1     1     4
 -0.2607492040     5     1     1     5
 0.0002135534     5     1     2     7
 0.0000000003     5     1     3     7
 -0.0000000008     5     1     6     4
 0.0003169347     5     1     6     5
 -0.0029359321     5     1     7     2
 0.0000000052     5     1     7     3
 0.0038454121     5     2     1     7
 0.0000000006     5     2     2     4
 -0.2407005992     5     2     2     5
 0.0273576912     5     2     3     4
 0.0000000006     5     2     3     5
 0.0447388747     5     2     4     3
 0.0244631914     5     2     6     7
 0.0029359321     5     2     7     1
 0.0246790660     5     2     7     6
 -0.0000000048     5     3     1     7
 -0.0175398063     5     3     2     4
 0.0000000006     5     3     2     5
 -0.0000000006     5     3     3     4
 -0.2309275030     5     3     3     5
 -0.0447388747     5     3     4     2
 -0.0000000198     5     3     6     7
 -0.0000000052     5     3     7     1
 -0.0000000200     5     3     7     6
 0.0000000110     5     4     1     1
 0.0000000007     5     4     1     6
 -0.0000000006     5     4     2     2
 0.0175398063     5     4     2     3
 -0.0273576912     5     4     3     2
 0.0000000006     5     4     3     3
 -0.2438372655     5     4     4     5
 0.0000000008     5     4     6     1
 -0.0000000082     5     4     7     7
 0.2607492040     5     5     1     1
 -0.0003169347     5     5     1     6
 0.2407005992     5     5     2     2
 -0.0000000006     5     5     2     3
 -0.0000000006     5     5     3     2
 0.2309275030     5     5     3     3
 0.2438372655     5     5     4     4
 -0.0003169347     5     5     6     1
 0.1843810759     5     5     6     6
 0.1795460391     5     5     7     7
 -0.0000000007     5     6     1     4
 0.0003169347     5     6     1     5
 -0.0001074510     5     6     2     7
 0.0000000001     5     6     3     7
 -0.1843810759     5     6     6     5
 -0.0246790660     5     6     7     2
 0.0000000200     5     6     7     3
 -0.0038454121     5     7     1     2
 0.0000000048     5     7     1     3
 -0.0002135534     5     7     2     1
 0.0001074510     5     7     2     6
 -0.0000000003     5     7     3     1
 -0.0000000001     5     7     3     6
 -0.0244631914     5     7     6     2
 0.0000000198     5     7     6     3
 0.0000000082     5     7     7     4
 -0.1795460391     5     7     7     5
 -0.1895681209     6     1     1     6
 -0.0008722484     6     1     2     2
 -0.0000000027     6     1     2     3
 -0.0000000026     6     1     3     2
 0.0009274970     6     1     3     3
 0.0002628423     6     1     4     4
 0.0000000007     6     1     4     5
 0.0000000008     6     1     5     4
 -0.0003169347     6     1     5     5
 -0.0009377730     6     1     7     7
 0.0008722484     6     2     2     1
 -0.1878710043     6     2     2     6
 0.0000000026     6     2     3     1
 -0.0000000199     6     2     4     7
 -0.0244631914     6     2     5     7
 0.0000000001     6     2     7     4
 0.0001074510     6     2     7     5
 0.0000000027     6     3     2     1
 -0.0009274970     6     3     3     1
 -0.1878706608     6     3     3     6
 -0.0244993964     6     3     4     7
 0.0000000198     6     3     5     7
 0.0001101197     6     3     7     4
 -0.0000000001     6     3     7     5
 -0.0000000200     6     4     2     7
 -0.0247168145     6     4     3     7
 -0.0002628423     6     4     4     1
 -0.1843826025     6     4     4     6
 -0.0000000008     6     4     5     1
 -0.0000000001     6     4     7     2
 -0.0001101197     6     4     7     3
 -0.0246790660     6     5     2     7
 0.0000000200     6     5     3     7
 -0.0000000007     6     5     4     1
 0.0003169347     6     5     5     1
 -0.1843810759     6     5     5     6
 -0.0001074510     6     5     7     2
 0.0000000001     6     5     7     3
 0.1895681209     6     6     1     1
 0.1878710043     6     6     2     2
 0.1878706608     6     6     3     3
 0.1843826025     6     6     4     4
 0.1843810759     6     6     5     5
 0.1119061122     6     6     7     7
 0.0000000200     6     7     2     4
 0.0246790660     6     7     2     5
 0.0247168145     6     7     3     4
 -0.0000000200     6     7     3     5
 0.0000000199     6     7     4     2
 0.0244993964     6     7     4     3
 0.0244631914     6     7     5     2
 -0.0000000198     6     7     5     3
 0.0009377730     6     7     7     1
 -0.1119061122     6     7     7     6
 -0.1850620100     7     1     1     7
 0.0000000015     7     1     2     4
 0.0038454121     7     1     2     5
 -0.0005749404     7     1     3     4
 -0.0000000048     7     1     3     5
 0.0000000004     7     1     4     2
 -0.0001244248     7     1     4     3
 0.0029359321     7     1     5     2
 -0.0000000052     7     1     5     3
 0.0009377730     7     1     6     7
 0.0000000004     7     2     1     4
 0.0002135534     7     2     1     5
 -0.1843831072     7     2     2     7
 -0.0000000118     7     2     3     7
 -0.0000000004     7     2     4     1
 -0.0000000200     7     2     4     6
 -0.0029359321     7     2     5     1
 -0.0246790660     7     2     5     6
 -0.0000000001     7     2     6     4
 -0.0001074510     7     2     6     5
 -0.0001936389     7     3     1     4
 0.0000000003     7     3     1     5
 -0.0000000118     7     3     2     7
 -0.1694595991     7     3     3     7
 0.0001244248     7     3     4     1
 -0.0247168145     7     3     4     6
 0.0000000052     7     3     5     1
 0.0000000200     7     3     5     6
 -0.0001101197     7     3     6     4
 0.0000000001     7     3     6     5
 -0.0000000004     7     4     1     2
 0.0001936389     7     4     1     3
 -0.0000000015     7     4     2     1
 -0.0000000199     7     4     2     6
 0.0005749404     7     4     3     1
 -0.0244993964     7     4     3     6
 -0.1699454626     7     4     4     7
 0.0000000082     7     4     5     7
 0.0000000001     7     4     6     2
 0.0001101197     7     4     6     3
 -0.0002135534     7     5     1     2
 -0.0000000003     7     5     1     3
 -0.0038454121     7     5     2     1
 -0.0244631914     7     5     2     6
 0.0000000048     7     5     3     1
 0.0000000198     7     5     3     6
 0.0000000082     7     5     4     7
 -0.1795460391     7     5     5     7
 0.0001074510     7     5     6     2
 -0.0000000001     7     5     6     3
 0.0009377730     7     6     1     7
 0.0000000199     7     6     2     4
 0.0244631914     7     6     2     5
 0.0244993964     7     6     3     4
 -0.0000000198     7     6     3     5
 0.0000000200     7     6     4     2
 0.0247168145     7     6     4     3
 0.0246790660     7     6     5     2
 -0.0000000200     7     6     5     3
 -0.1119061122     7     6     6     7
 0.1850620100     7     7     1     1
 -0.0009377730     7     7     1     6
 0.1843831072     7     7     2     2
 0.0000000118     7     7     2     3
 0.0000000118     7     7     3     2
 0.1694595991     7     7     3     3
 0.1699454626     7     7     4     4
 -0.0000000082     7     7     4     5
 -0.0000000082     7     7     5     4
 0.1795460391     7     7     5     5
 -0.0009377730     7     7     6     1
 0.1119061122     7     7     6     6
0.0 0 0 0 0
 0.2696804626     1     1     2     2
 -0.0000000085     1     1     2     3
 -0.0000000085     1     1     3     2
 0.2666062532     1     1     3     3
 0.2567296287     1     1     4     4
 0.0000000110     1     1     4     5
 0.0000000110     1     1     5     4
 0.2607492040     1     1     5     5
 0.1895681209     1     1     6     6
 0.1850620100     1     1     7     7
 -0.2696804626     1     2     2     1
 0.0008722484     1     2     2     6
 0.0000000085     1     2     3     1
 0.0000000027     1     2     3     6
 -0.0000000015     1     2     4     7
 -0.0038454121     1     2     5     7
 -0.0000000004     1     2     7     4
 -0.0002135534     1     2     7     5
 0.0000000085     1     3     2     1
 0.0000000026     1     3     2     6
 -0.2666062532     1     3     3     1
 -0.0009274970     1     3     3     6
 0.0005749404     1     3     4     7
 0.0000000048     1     3     5     7
 0.0001936389     1     3     7     4
 -0.0000000003     1     3     7     5
 -0.0000000004     1     4     2     7
 0.0001244248     1     4     3     7
 -0.2567296287     1     4     4     1
 -0.0002628423     1     4     4     6
 -0.0000000110     1     4     5     1
 -0.0000000007     1     4     5     6
 0.0000000004     1     4     7     2
 -0.0001936389     1     4     7     3
 -0.0029359321     1     5     2     7
 0.0000000052     1     5     3     7
 -0.0000000110     1     5     4     1
 -0.0000000008     1     5     4     6
 -0.2607492040     1     5     5     1
 0.0003169347     1     5     5     6
 0.0002135534     1     5     7     2
 0.0000000003     1     5     7     3
 -0.0008722484     1     6     2     2
 -0.0000000026     1     6     2     3
 -0.0000000027     1     6     3     2
 0.0009274970     1     6     3     3
 0.0002628423     1     6     4     4
 0.0000000008     1     6     4     5
 0.0000000007     1     6     5     4
 -0.0003169347     1     6     5     5
 -0.1895681209     1     6     6     1
 -0.0009377730     1     6     7     7
 0.0000000004     1     7     2     4
 0.0029359321     1     7     2     5
 -0.0001244248     1     7     3     4
 -0.0000000052     1     7     3     5
 0.0000000015     1     7     4     2
 -0.0005749404     1     7     4     3
 0.0038454121     1     7     5     2
 -0.0000000048     1     7     5     3
 -0.1850620100     1     7     7     1
 0.0009377730     1     7     7     6
 -0.2696804626     2     1     1     2
 0.0000000085     2     1     1     3
 -0.0000000004     2     1     4     7
 -0.0002135534     2     1     5     7
 0.0008722484     2     1     6     2
 0.0000000027     2     1     6     3
 -0.0000000015     2     1     7     4
 -0.0038454121     2     1     7     5
 0.2696804626     2     2     1     1
 -0.0008722484     2     2     1     6
 0.2505085356     2     2     3     3
 0.2309246146     2     2     4     4
 -0.0000000006     2     2     4     5
 -0.0000000006     2     2     5     4
 0.2407005992     2     2     5     5
 -0.0008722484     2     2     6     1
 0.1878710043     2     2     6     6
 0.1843831072     2     2     7     7
 -0.0000000085     2     3     1     1
 -0.0000000026     2     3     1     6
 -0.2505085356     2     3     3     2
 0.0000000006     2     3     4     4
 -0.0273576912     2     3     4     5
 0.0175398063     2     3     5     4
 -0.0000000006     2     3     5     5
 -0.0000000027     2     3     6     1
 0.0000000118     2     3     7     7
 0.0000000004     2     4     1     7
 -0.0447388747     2     4     3     5
 -0.2309246146     2     4     4     2
 -0.0000000006     2     4     4     3
 0.0000000006     2     4     5     2
 -0.0175398063     2     4     5     3
 0.0000000200     2     4     6     7
 0.0000000015     2     4     7     1
 0.0000000199     2     4     7     6
 0.0029359321     2     5     1     7
 0.0447388747     2     5     3     4
 0.0000000006     2     5     4     2
 0.0273576912     2     5     4     3
 -0.2407005992     2     5     5     2
 0.0000000006     2     5     5     3
 0.0246790660     2     5     6     7
 0.0038454121     2     5     7     1
 0.0244631914     2     5     7     6
 0.0008722484     2     6     1     2
 0.0000000026     2     6     1     3
 0.0000000001     2     6     4     7
 0.0001074510     2     6     5     7
 -0.1878710043     2     6     6     2
 -0.0000000199     2     6     7     4
 -0.0244631914     2     6     7     5
 -0.0000000004     2     7     1     4
 -0.0029359321     2     7     1     5
 0.0000000004     2     7     4     1
 -0.0000000001     2     7     4     6
 0.0002135534     2     7     5     1
 -0.0001074510     2     7     5     6
 -0.0000000200     2     7     6     4
 -0.0246790660     2     7     6     5
 -0.1843831072     2     7     7     2
 -0.0000000118     2     7     7     3
 0.0000000085     3     1     1     2
 -0.2666062532     3     1     1     3
 0.0001936389     3     1     4     7
 -0.0000000003     3     1     5     7
 0.0000000026     3     1     6     2
 -0.0009274970     3     1     6     3
 0.0005749404     3     1     7     4
 0.0000000048     3     1     7     5
 -0.0000000085     3     2     1     1
 -0.0000000027     3     2     1     6
 -0.2505085356     3     2     2     3
 0.0000000006     3     2     4     4
 0.0175398063     3     2     4     5
 -0.0273576912     3     2     5     4
 -0.0000000006     3     2     5     5
 -0.0000000026     3     2     6     1
 0.0000000118     3     2     7     7
 0.2666062532     3     3     1     1
 0.0009274970     3     3     1     6
 0.2505085356     3     3     2     2
 0.2407534624     3     3     4     4
 0.0000000006     3     3     4     5
 0.0000000006     3     3     5     4
 0.2309275030     3     3     5     5
 0.0009274970     3     3     6     1
 0.1878706608     3     3     6     6
 0.1694595991     3     3     7     7
 -0.0001244248     3     4     1     7
 0.0447388747     3     4     2     5
 -0.0000000006     3     4     4     2
 -0.2407534624     3     4     4     3
 0.0273576912     3     4     5     2
 -0.0000000006     3     4     5     3
 0.0247168145     3     4     6     7
 -0.0005749404     3     4     7     1
 0.0244993964     3     4     7     6
 -0.0000000052     3     5     1     7
 -0.0447388747     3     5     2     4
 -0.0175398063     3     5     4     2
 -0.0000000006     3     5     4     3
 0.0000000006     3     5     5     2
 -0.2309275030     3     5     5     3
 -0.0000000200     3     5     6     7
 -0.0000000048     3     5     7     1
 -0.0000000198     3     5     7     6
 0.0000000027     3     6     1     2
 -0.0009274970     3     6     1     3
 0.0001101197     3     6     4     7
 -0.0000000001     3     6     5     7
 -0.1878706608     3     6     6     3
 -0.0244993964     3     6     7     4
 0.0000000198     3     6     7     5
 0.0001244248     3     7     1     4
 0.0000000052     3     7     1     5
 -0.0001936389     3     7     4     1
 -0.0001101197     3     7     4     6
 0.0000000003     3     7     5     1
 0.0000000001     3     7     5     6
 -0.0247168145     3     7     6     4
 0.0000000200     3     7     6     5
 -0.0000000118     3     7     7     2
 -0.1694595991     3     7     7     3
 -0.2567296287     4     1     1     4
 -0.0000000110     4     1     1     5
 0.0000000004     4     1     2     7
 -0.0001936389     4     1     3     7
 -0.0002628423     4     1     6     4
 -0.0000000007     4     1     6     5
 -0.0000000004     4     1     7     2
 0.0001244248     4     1     7     3
 0.0000000015     4     2     1     7
 -0.2309246146     4     2     2     4
 0.0000000006     4     2     2     5
 -0.0000000006     4     2     3     4
 -0.0175398063     4     2     3     5
 -0.0447388747     4     2     5     3
 0.0000000199     4     2     6     7
 0.0000000004     4     2     7     1
 0.0000000200     4     2     7     6
 -0.0005749404     4     3     1     7
 -0.0000000006     4     3     2     4
 0.0273576912     4     3     2     5
 -0.2407534624     4     3     3     4
 -0.0000000006     4     3     3     5
 0.0447388747     4     3     5     2
 0.0244993964     4     3     6     7
 -0.0001244248     4     3     7     1
 0.0247168145     4     3     7     6
 0.2567296287     4     4     1     1
 0.0002628423     4     4     1     6
 0.2309246146     4     4     2     2
 0.0000000006     4     4     2     3
 0.0000000006     4     4     3     2
 0.2407534624     4     4     3     3
 0.2438372655     4     4     5     5
 0.0002628423     4     4     6     1
 0.1843826025     4     4     6     6
 0.1699454626     4     4     7     7
 0.0000000110     4     5     1     1
 0.0000000008     4     5     1     6
 -0.0000000006     4     5     2     2
 -0.0273576912     4     5     2     3
 0.0175398063     4     5     3     2
 0.0000000006     4     5     3     3
 -0.2438372655     4     5     5     4
 0.0000000007     4     5     6     1
 -0.0000000082     4     5     7     7
 -0.0002628423     4     6     1     4
 -0.0000000008     4     6     1     5
 -0.0000000001     4     6     2     7
 -0.0001101197     4     6     3     7
 -0.1843826025     4     6     6     4
 -0.0000000200     4     6     7     2
 -0.0247168145     4     6     7     3
 -0.0000000015     4     7     1     2
 0.0005749404     4     7     1     3
 -0.0000000004     4     7     2     1
 0.0000000001     4     7     2     6
 0.0001936389     4     7     3     1
 0.0001101197     4     7     3     6
 -0.0000000199     4     7     6     2
 -0.0244993964     4     7     6     3
 -0.1699454626     4     7     7     4
 0.0000000082     4     7     7     5
 -0.0000000110     5     1     1     4
 -0.2607492040     5     1     1     5
 0.0002135534     5     1     2     7
 0.0000000003     5     1     3     7
 -0.0000000008     5     1     6     4
 0.0003169347     5     1     6     5
 -0.0029359321     5     1     7     2
 0.0000000052     5     1     7     3
 0.0038454121     5     2     1     7
 0.0000000006     5     2     2     4
 -0.2407005992     5     2     2     5
 0.0273576912     5     2     3     4
 0.0000000006     5     2     3     5
 0.0447388747     5     2     4     3
 0.0244631914     5     2     6     7
 0.0029359321     5     2     7     1
 0.0246790660     5     2     7     6
 -0.0000000048     5     3     1     7
 -0.0175398063     5     3     2     4
 0.0000000006     5     3     2     5
 -0.0000000006     5     3     3     4
 -0.2309275030     5     3     3     5
 -0.0447388747     5     3     4     2
 -0.0000000198     5     3     6     7
 -0.0000000052     5     3     7     1
 -0.0000000200     5     3     7     6
 0.0000000110     5     4     1     1
 0.0000000007     5     4     1     6
 -0.0000000006     5     4     2     2
 0.0175398063     5     4     2     3
 -0.0273576912     5     4     3     2
 0.0000000006     5     4     3     3
 -0.2438372655     5     4     4     5
 0.0000000008     5     4     6     1
 -0.0000000082     5     4     7     7
 0.2607492040     5     5     1     1
 -0.0003169347     5     5     1     6
 0.2407005992     5     5     2     2
 -0.0000000006     5     5     2     3
 -0.0000000006     5     5     3     2
 0.2309275030     5     5     3     3
 0.2438372655     5     5     4     4
 -0.0003169347     5     5     6     1
 0.1843810759     5     5     6     6
 0.1795460391     5     5     7     7
 -0.0000000007     5     6     1     4
 0.0003169347     5     6     1     5
 -0.0001074510     5     6     2     7
 0.0000000001     5     6     3     7
 -0.1843810759     5     6     6     5
 -0.0246790660     5     6     7     2
 0.0000000200     5     6     7     3
 -0.0038454121     5     7     1     2
 0.0000000048     5     7     1     3
 -0.0002135534     5     7     2     1
 0.0001074510     5     7     2     6
 -0.0000000003     5     7     3     1
 -0.0000000001     5     7     3     6
 -0.0244631914     5     7     6     2
 0.0000000198     5     7     6     3
 0.0000000082     5     7     7     4
 -0.1795460391     5     7     7     5
 -0.1895681209     6     1     1     6
 -0.0008722484     6     1     2     2
 -0.0000000027     6     1     2     3
 -0.0000000026     6     1     3     2
 0.0009274970     6     1     3     3
 0.0002628423     6     1     4     4
 0.0000000007     6     1     4     5
 0.0000000008     6     1     5     4
 -0.0003169347     6     1     5     5
 -0.0009377730     6     1     7     7
 0.0008722484     6     2     2     1
 -0.1878710043     6     2     2     6
 0.0000000026     6     2     3     1
 -0.0000000199     6     2     4     7
 -0.0244631914     6     2     5     7
 0.0000000001     6     2     7     4
 0.0001074510     6     2     7     5
 0.0000000027     6     3     2     1
 -0.0009274970     6     3     3     1
 -0.1878706608     6     3     3     6
 -0.0244993964     6     3     4     7
 0.0000000198     6     3     5     7
 0.0001101197     6     3     7     4
 -0.0000000001     6     3     7     5
 -0.0000000200     6     4     2     7
 -0.0247168145     6     4     3     7
 -0.0002628423     6     4     4     1
 -0.1843826025     6     4     4     6
 -0.0000000008     6     4     5     1
 -0.0000000001     6     4     7     2
 -0.0001101197     6     4     7     3