&FCI NORB=  6,NELEC=  6,MS2=0,
 ORBSYM=1,1,1,1,1,1
 ISYM=1,
&END
 0.4772749327     1     1     2     2
 0.4772749327     1     1     3     3
 0.4325426781     1     1     4     4
 0.4325426781     1     1     5     5
 0.2917764354     1     1     6     6
 -0.4772749327     1     2     2     1
 0.0013360100     1     2     4     6
 -0.0014241232     1     2     5     6
 -0.0024989176     1     2     6     4
 0.0026637274     1     2     6     5
 -0.4772749327     1     3     3     1
 -0.0014241232     1     3     4     6
 -0.0013360100     1     3     5     6
 0.0026637274     1     3     6     4
 0.0024989176     1     3     6     5
 0.0046353655     1     4     2     6
 -0.0049410793     1     4     3     6
 -0.4325426781     1     4     4     1
 0.0024989176     1     4     6     2
 -0.0026637274     1     4     6     3
 -0.0049410793     1     5     2     6
 -0.0046353655     1     5     3     6
 -0.4325426781     1     5     5     1
 -0.0026637274     1     5     6     2
 -0.0024989176     1     5     6     3
 -0.0046353655     1     6     2     4
 0.0049410793     1     6     2     5
 0.0049410793     1     6     3     4
 0.0046353655     1     6     3     5
 -0.0013360100     1     6     4     2
 0.0014241232     1     6     4     3
 0.0014241232     1     6     5     2
 0.0013360100     1     6     5     3
 -0.2917764354     1     6     6     1
 -0.4772749327     2     1     1     2
 -0.0024989176     2     1     4     6
 0.0026637274     2     1     5     6
 0.0013360100     2     1     6     4
 -0.0014241232     2     1     6     5
 0.4772749327     2     2     1     1
 0.5084003948     2     2     3     3
 0.4160070786     2     2     4     4
 0.0338400774     2     2     4     5
 0.0338400774     2     2     5     4
 0.4116814934     2     2     5     5
 0.2763814393     2     2     6     6
 -0.5084003948     2     3     3     2
 0.0338400774     2     3     4     4
 -0.0408442723     2     3     4     5
 0.0365186872     2     3     5     4
 -0.0338400774     2     3     5     5
 -0.0046353655     2     4     1     6
 -0.0683832457     2     4     3     5
 -0.4160070786     2     4     4     2
 -0.0338400774     2     4     4     3
 -0.0338400774     2     4     5     2
 -0.0365186872     2     4     5     3
 -0.0013360100     2     4     6     1
 0.0049410793     2     5     1     6
 0.0683832457     2     5     3     4
 -0.0338400774     2     5     4     2
 0.0408442723     2     5     4     3
 -0.4116814934     2     5     5     2
 0.0338400774     2     5     5     3
 0.0014241232     2     5     6     1
 0.0046353655     2     6     1     4
 -0.0049410793     2     6     1     5
 0.0024989176     2     6     4     1
 -0.0026637274     2     6     5     1
 -0.2763814393     2     6     6     2
 -0.4772749327     3     1     1     3
 0.0026637274     3     1     4     6
 0.0024989176     3     1     5     6
 -0.0014241232     3     1     6     4
 -0.0013360100     3     1     6     5
 -0.5084003948     3     2     2     3
 0.0338400774     3     2     4     4
 0.0365186872     3     2     4     5
 -0.0408442723     3     2     5     4
 -0.0338400774     3     2     5     5
 0.4772749327     3     3     1     1
 0.5084003948     3     3     2     2
 0.4116814934     3     3     4     4
 -0.0338400774     3     3     4     5
 -0.0338400774     3     3     5     4
 0.4160070786     3     3     5     5
 0.2763814393     3     3     6     6
 0.0049410793     3     4     1     6
 0.0683832457     3     4     2     5
 -0.0338400774     3     4     4     2
 -0.4116814934     3     4     4     3
 0.0408442723     3     4     5     2
 0.0338400774     3     4     5     3
 0.0014241232     3     4     6     1
 0.0046353655     3     5     1     6
 -0.0683832457     3     5     2     4
 -0.0365186872     3     5     4     2
 0.0338400774     3     5     4     3
 0.0338400774     3     5     5     2
 -0.4160070786     3     5     5     3
 0.0013360100     3     5     6     1
 -0.0049410793     3     6     1     4
 -0.0046353655     3     6     1     5
 -0.0026637274     3     6     4     1
 -0.0024989176     3     6     5     1
 -0.2763814393     3     6     6     3
 -0.4325426781     4     1     1     4
 0.0024989176     4     1     2     6
 -0.0026637274     4     1     3     6
 0.0046353655     4     1     6     2
 -0.0049410793     4     1     6     3
 -0.0013360100     4     2     1     6
 -0.4160070786     4     2     2     4
 -0.0338400774     4     2     2     5
 -0.0338400774     4     2     3     4
 -0.0365186872     4     2     3     5
 -0.0683832457     4     2     5     3
 -0.0046353655     4     2     6     1
 0.0014241232     4     3     1     6
 -0.0338400774     4     3     2     4
 0.0408442723     4     3     2     5
 -0.4116814934     4     3     3     4
 0.0338400774     4     3     3     5
 0.0683832457     4     3     5     2
 0.0049410793     4     3     6     1
 0.4325426781     4     4     1     1
 0.4160070786     4     4     2     2
 0.0338400774     4     4     2     3
 0.0338400774     4     4     3     2
 0.4116814934     4     4     3     3
 0.3975705622     4     4     5     5
 0.2707838521     4     4     6     6
 0.0338400774     4     5     2     2
 -0.0408442723     4     5     2     3
 0.0365186872     4     5     3     2
 -0.0338400774     4     5     3     3
 -0.3975705622     4     5     5     4
 0.0013360100     4     6     1     2
 -0.0014241232     4     6     1     3
 -0.0024989176     4     6     2     1
 0.0026637274     4     6     3     1
 -0.2707838521     4     6     6     4
 -0.4325426781     5     1     1     5
 -0.0026637274     5     1     2     6
 -0.0024989176     5     1     3     6
 -0.0049410793     5     1     6     2
 -0.0046353655     5     1     6     3
 0.0014241232     5     2     1     6
 -0.0338400774     5     2     2     4
 -0.4116814934     5     2     2     5
 0.0408442723     5     2     3     4
 0.0338400774     5     2     3     5
 0.0683832457     5     2     4     3
 0.0049410793     5     2     6     1
 0.0013360100     5     3     1     6
 -0.0365186872     5     3     2     4
 0.0338400774     5     3     2     5
 0.0338400774     5     3     3     4
 -0.4160070786     5     3     3     5
 -0.0683832457     5     3     4     2
 0.0046353655     5     3     6     1
 0.0338400774     5     4     2     2
 0.0365186872     5     4     2     3
 -0.0408442723     5     4     3     2
 -0.0338400774     5     4     3     3
 -0.3975705622     5     4     4     5
 0.4325426781     5     5     1     1
 0.4116814934     5     5     2     2
 -0.0338400774     5     5     2     3
 -0.0338400774     5     5     3     2
 0.4160070786     5     5     3     3
 0.3975705622     5     5     4     4
 0.2707838521     5     5     6     6
 -0.0014241232     5     6     1     2
 -0.0013360100     5     6     1     3
 0.0026637274     5     6     2     1
 0.0024989176     5     6     3     1
 -0.2707838521     5     6     6     5
 -0.2917764354     6     1     1     6
 -0.0013360100     6     1     2     4
 0.0014241232     6     1     2     5
 0.0014241232     6     1     3     4
 0.0013360100     6     1     3     5
 -0.0046353655     6     1     4     2
 0.0049410793     6     1     4     3
 0.0049410793     6     1     5     2
 0.0046353655     6     1     5     3
 0.0024989176     6     2     1     4
 -0.0026637274     6     2     1     5
 -0.2763814393     6     2     2     6
 0.0046353655     6     2     4     1
 -0.0049410793     6     2     5     1
 -0.0026637274     6     3     1     4
 -0.0024989176     6     3     1     5
 -0.2763814393     6     3     3     6
 -0.0049410793     6     3     4     1
 -0.0046353655     6     3     5     1
 -0.0024989176     6     4     1     2
 0.0026637274     6     4     1     3
 0.0013360100     6     4     2     1
 -0.0014241232     6     4     3     1
 -0.2707838521     6     4     4     6
 0.0026637274     6     5     1     2
 0.0024989176     6     5     1     3
 -0.0014241232     6     5     2     1
 -0.0013360100     6     5     3     1
 -0.2707838521     6     5     5     6
 0.2917764354     6     6     1     1
 0.2763814393     6     6     2     2
 0.2763814393     6     6     3     3
 0.2707838521     6     6     4     4
 0.2707838521     6     6     5     5
0.0 0 0 0 0
 0.4772749327     1     1     2     2
 0.4772749327     1     1     3     3
 0.4325426781     1     1     4     4
 0.4325426781     1     1     5     5
 0.2917764354     1     1     6     6
 -0.4772749327     1     2     2     1
 0.0013360100     1     2     4     6
 -0.0014241232     1     2     5     6
 -0.0024989176     1     2     6     4
 0.0026637274     1     2     6     5
 -0.4772749327     1     3     3     1
 -0.0014241232     1     3     4     6
 -0.0013360100     1     3     5     6
 0.0026637274     1     3     6     4
 0.0024989176     1     3     6     5
 0.0046353655     1     4     2     6
 -0.0049410793     1     4     3     6
 -0.4325426781     1     4     4     1
 0.0024989176     1     4     6     2
 -0.0026637274     1     4     6     3
 -0.0049410793     1     5     2     6
 -0.0046353655     1     5     3     6
 -0.4325426781     1     5     5     1
 -0.0026637274     1     5     6     2
 -0.0024989176     1     5     6     3
 -0.0046353655     1     6     2     4
 0.0049410793     1     6     2     5
 0.0049410793     1     6     3     4
 0.0046353655     1     6     3     5
 -0.0013360100     1     6     4     2
 0.0014241232     1     6     4     3
 0.0014241232     1     6     5     2
 0.0013360100     1     6     5     3
 -0.2917764354     1     6     6     1
 -0.4772749327     2     1     1     2
 -0.0024989176     2     1     4     6
 0.0026637274     2     1     5     6
 0.0013360100     2     1     6     4
 -0.0014241232     2     1     6     5
 0.4772749327     2     2     1     1
 0.5084003948     2     2     3     3
 0.4160070786     2     2     4     4
 0.0338400774     2     2     4     5
 0.0338400774     2     2     5     4
 0.4116814934     2     2     5     5
 0.2763814393     2     2     6     6
 -0.5084003948     2     3     3     2
 0.0338400774     2     3     4     4
 -0.0408442723     2     3     4     5
 0.0365186872     2     3     5     4
 -0.0338400774     2     3     5     5
 -0.0046353655     2     4     1     6
 -0.0683832457     2     4     3     5
 -0.4160070786     2     4     4     2
 -0.0338400774     2     4     4     3
 -0.0338400774     2     4     5     2
 -0.0365186872     2     4     5     3
 -0.0013360100     2     4     6     1
 0.0049410793     2     5     1     6
 0.0683832457     2     5     3     4
 -0.0338400774     2     5     4     2
 0.0408442723     2     5     4     3
 -0.4116814934     2     5     5     2
 0.0338400774     2     5     5     3
 0.0014241232     2     5     6     1
 0.0046353655     2     6     1     4
 -0.0049410793     2     6     1     5
 0.0024989176     2     6     4     1
 -0.0026637274     2     6     5     1
 -0.2763814393     2     6     6     2
 -0.4772749327     3     1     1     3
 0.0026637274     3     1     4     6
 0.0024989176     3     1     5     6
 -0.0014241232     3     1     6     4
 -0.0013360100     3     1     6     5
 -0.5084003948     3     2     2     3
 0.0338400774     3     2     4     4
 0.0365186872     3     2     4     5
 -0.0408442723     3     2     5     4
 -0.0338400774     3     2     5     5
 0.4772749327     3     3     1     1
 0.5084003948     3     3     2     2
 0.4116814934     3     3     4     4
 -0.0338400774     3     3     4     5
 -0.0338400774     3     3     5     4
 0.4160070786     3     3     5     5
 0.2763814393     3     3     6     6
 0.0049410793     3     4     1     6
 0.0683832457     3     4     2     5
 -0.0338400774     3     4     4     2
 -0.4116814934     3     4     4     3
 0.0408442723     3     4     5     2
 0.0338400774     3     4     5     3
 0.0014241232     3     4     6     1
 0.0046353655     3     5     1     6
 -0.0683832457     3     5     2     4
 -0.0365186872     3     5     4     2
 0.0338400774     3     5     4     3
 0.0338400774     3     5     5     2
 -0.4160070786     3     5     5     3
 0.0013360100     3     5     6     1
 -0.0049410793     3     6     1     4
 -0.0046353655     3     6     1     5
 -0.0026637274     3     6     4     1
 -0.0024989176     3     6     5     1
 -0.2763814393     3     6     6     3
 -0.4325426781     4     1     1     4
 0.0024989176     4     1     2     6
 -0.0026637274     4     1     3     6
 0.0046353655     4     1     6     2
 -0.0049410793     4     1     6     3
 -0.0013360100     4     2     1     6
 -0.4160070786     4     2     2     4
 -0.0338400774     4     2     2     5
 -0.0338400774     4     2     3     4
 -0.0365186872     4     2     3     5
 -0.0683832457     4     2     5     3
 -0.0046353655     4     2     6     1
 0.0014241232     4     3     1     6
 -0.0338400774     4     3     2     4
 0.0408442723     4     3     2     5
 -0.4116814934     4     3     3     4
 0.0338400774     4     3     3     5
 0.0683832457     4     3     5     2
 0.0049410793     4     3     6     1
 0.4325426781     4     4     1     1
 0.4160070786     4     4     2     2
 0.0338400774     4     4     2     3
 0.0338400774     4     4     3     2
 0.4116814934     4     4     3     3
 0.3975705622     4     4     5     5
 0.2707838521     4     4     6     6
 0.0338400774     4     5     2     2
 -0.0408442723     4     5     2     3
 0.0365186872     4     5     3     2
 -0.0338400774     4     5     3     3
 -0.3975705622     4     5     5     4
 0.0013360100     4     6     1     2
 -0.0014241232     4     6     1     3
 -0.0024989176     4     6     2     1
 0.0026637274     4     6     3     1
 -0.2707838521     4     6     6     4
 -0.4325426781     5     1     1     5
 -0.0026637274     5     1     2     6
 -0.0024989176     5     1     3     6
 -0.0049410793     5     1     6     2
 -0.0046353655     5     1     6     3
 0.0014241232     5     2     1     6
 -0.0338400774     5     2     2     4
 -0.4116814934     5     2     2     5
 0.0408442723     5     2     3     4
 0.0338400774     5     2     3     5
 0.0683832457     5     2     4     3
 0.0049410793     5     2     6     1
 0.0013360100     5     3     1     6
 -0.0365186872     5     3     2     4
 0.0338400774     5     3     2     5
 0.0338400774     5     3     3     4
 -0.4160070786     5     3     3     5
 -0.0683832457     5     3     4     2
 0.0046353655     5     3     6     1
 0.0338400774     5     4     2     2
 0.0365186872     5     4     2     3
 -0.0408442723     5     4     3     2
 -0.0338400774     5     4     3     3
 -0.3975705622     5     4     4     5
 0.4325426781     5     5     1     1
 0.4116814934     5     5     2     2
 -0.0338400774     5     5     2     3
 -0.0338400774     5     5     3     2
 0.4160070786     5     5     3     3
 0.3975705622     5     5     4     4
 0.2707838521     5     5     6     6
 -0.0014241232     5     6     1     2
 -0.0013360100     5     6     1     3
 0.0026637274     5     6     2     1
 0.0024989176     5     6     3     1
 -0.2707838521     5     6     6     5
 -0.2917764354     6     1     1     6
 -0.0013360100     6     1     2     4
 0.0014241232     6     1     2     5
 0.0014241232     6     1     3     4
 0.0013360100     6     1     3     5
 -0.0046353655     6     1     4     2
 0.0049410793     6     1     4     3
 0.0049410793     6     1     5     2
 0.0046353655     6     1     5     3
 0.0024989176     6     2     1     4
 -0.0026637274     6     2     1     5
 -0.2763814393     6     2     2     6
 0.0046353655     6     2     4     1
 -0.0049410793     6     2     5     1
 -0.0026637274     6     3     1     4
 -0.0024989176     6     3     1     5
 -0.2763814393     6     3     3     6
 -0.0049410793     6     3     4     1
 -0.0046353655     6     3     5     1
 -0.0024989176     6     4     1     2
 0.0026637274     6     4     1     3
 0.0013360100     6     4     2     1
 -0.0014241232     6     4     3     1
 -0.2707838521     6     4     4     6
 0.0026637274     6     5     1     2
 0.0024989176     6     5     1     3
 -0.0014241232     6     5     2     1
 -0.0013360100     6     5     3     1
 -0.2707838521     6     5     5     6
 0.2917764354     6     6     1     1
 0.2763814393     6     6     2     2
 0.2763814393     6     6     3     3
 0.2707838521     6     6     4     4
 0.2707838521     6     6     5     5
0.0 0 0 0 0
 0.5434063663     1     1     1     1
 0.5002192044     1     1     2     2
 0.5002192044     1     1     3     3
 0.4661271857     1     1     4     4
 0.4661271857     1     1     5     5
 0.3066598827     1     1     6     6
 0.0187810224     1     2     1     2
 0.0229442717     1     2     2     1
 0.0027324651     1     2     4     6
 -0.0029126779     1     2     5     6
 0.0025543505     1     2     6     4
 -0.0027228162     1     2     6     5
 0.0187810224     1     3     1     3
 0.0229442717     1     3     3     1
 -0.0029126779     1     3     4     6
 -0.0027324651     1     3     5     6
 -0.0027228162     1     3     6     4
 -0.0025543505     1     3     6     5
 0.0284446900     1     4     1     4
 0.0063171283     1     4     2     6
 -0.0067337585     1     4     3     6
 0.0335845076     1     4     4     1
 0.0050532681     1     4     6     2
 -0.0053865436     1     4     6     3
 0.0284446900     1     5     1     5
 -0.0067337585     1     5     2     6
 -0.0063171283     1     5     3     6
 0.0335845076     1     5     5     1
 -0.0053865436     1     5     6     2
 -0.0050532681     1     5     6     3
 0.0156972357     1     6     1     6
 0.0016817628     1     6     2     4
 -0.0017926792     1     6     2     5
 -0.0017926792     1     6     3     4
 -0.0016817628     1     6     3     5
 0.0013964551     1     6     4     2
 -0.0014885547     1     6     4     3
 -0.0014885547     1     6     5     2
 -0.0013964551     1     6     5     3
 0.0148834473     1     6     6     1
 0.0229442717     2     1     1     2
 0.0187810224     2     1     2     1
 0.0025543505     2     1     4     6
 -0.0027228162     2     1     5     6
 0.0027324651     2     1     6     4
 -0.0029126779     2     1     6     5
 0.5002192044     2     2     1     1
 0.5680459202     2     2     2     2
 0.5293835177     2     2     3     3
 0.4778296748     2     2     4     4
 -0.0173569313     2     2     4     5
 -0.0173569313     2     2     5     4
 0.4800483129     2     2     5     5
 0.2836071891     2     2     6     6
 0.0176792796     2     3     2     3
 0.0209831229     2     3     3     2
 -0.0173569313     2     3     4     4
 0.0000435431     2     3     4     5
 0.0021750951     2     3     5     4
 0.0173569313     2     3     5     5
 0.0016817628     2     4     1     6
 0.0603578224     2     4     2     4
 -0.0497008345     2     4     2     5
 -0.0497008345     2     4     3     4
 -0.0310151349     2     4     3     5
 0.0618225962     2     4     4     2
 -0.0511970087     2     4     4     3
 -0.0511970087     2     4     5     2
 -0.0343435921     2     4     5     3
 0.0013964551     2     4     6     1
 -0.0017926792     2     5     1     6
 -0.0497008345     2     5     2     4
 0.0667107982     2     5     2     5
 0.0373681108     2     5     3     4
 0.0497008345     2     5     3     5
 -0.0511970087     2     5     4     2
 0.0408878154     2     5     4     3
 0.0683668195     2     5     5     2
 0.0511970087     2     5     5     3
 -0.0014885547     2     5     6     1
 0.0063171283     2     6     1     4
 -0.0067337585     2     6     1     5
 0.0079524341     2     6     2     6
 0.0050532681     2     6     4     1
 -0.0053865436     2     6     5     1
 0.0072257498     2     6     6     2
 0.0229442717     3     1     1     3
 0.0187810224     3     1     3     1
 -0.0027228162     3     1     4     6
 -0.0025543505     3     1     5     6
 -0.0029126779     3     1     6     4
 -0.0027324651     3     1     6     5
 0.0209831229     3     2     2     3
 0.0176792796     3     2     3     2
 -0.0173569313     3     2     4     4
 0.0021750951     3     2     4     5
 0.0000435431     3     2     5     4
 0.0173569313     3     2     5     5
 0.5002192044     3     3     1     1
 0.5293835177     3     3     2     2
 0.5680459202     3     3     3     3
 0.4800483129     3     3     4     4
 0.0173569313     3     3     4     5
 0.0173569313     3     3     5     4
 0.4778296748     3     3     5     5
 0.2836071891     3     3     6     6
 -0.0017926792     3     4     1     6
 -0.0497008345     3     4     2     4
 0.0373681108     3     4     2     5
 0.0667107982     3     4     3     4
 0.0497008345     3     4     3     5
 -0.0511970087     3     4     4     2
 0.0683668195     3     4     4     3
 0.0408878154     3     4     5     2
 0.0511970087     3     4     5     3
 -0.0014885547     3     4     6     1
 -0.0016817628     3     5     1     6
 -0.0310151349     3     5     2     4
 0.0497008345     3     5     2     5
 0.0497008345     3     5     3     4
 0.0603578224     3     5     3     5
 -0.0343435921     3     5     4     2
 0.0511970087     3     5     4     3
 0.0511970087     3     5     5     2
 0.0618225962     3     5     5     3
 -0.0013964551     3     5     6     1
 -0.0067337585     3     6     1     4
 -0.0063171283     3     6     1     5
 0.0079524341     3     6     3     6
 -0.0053865436     3     6     4     1
 -0.0050532681     3     6     5     1
 0.0072257498     3     6     6     3
 0.0335845076     4     1     1     4
 0.0050532681     4     1     2     6
 -0.0053865436     4     1     3     6
 0.0284446900     4     1     4     1
 0.0063171283     4     1     6     2
 -0.0067337585     4     1     6     3
 0.0013964551     4     2     1     6
 0.0618225962     4     2     2     4
 -0.0511970087     4     2     2     5
 -0.0511970087     4     2     3     4
 -0.0343435921     4     2     3     5
 0.0603578224     4     2     4     2
 -0.0497008345     4     2     4     3
 -0.0497008345     4     2     5     2
 -0.0310151349     4     2     5     3
 0.0016817628     4     2     6     1
 -0.0014885547     4     3     1     6
 -0.0511970087     4     3     2     4
 0.0408878154     4     3     2     5
 0.0683668195     4     3     3     4
 0.0511970087     4     3     3     5
 -0.0497008345     4     3     4     2
 0.0667107982     4     3     4     3
 0.0373681108     4     3     5     2
 0.0497008345     4     3     5     3
 -0.0017926792     4     3     6     1
 0.4661271857     4     4     1     1
 0.4778296748     4     4     2     2
 -0.0173569313     4     4     2     3
 -0.0173569313     4     4     3     2
 0.4800483129     4     4     3     3
 0.4441935482     4     4     4     4
 0.4140918874     4     4     5     5
 0.2806037098     4     4     6     6
 -0.0173569313     4     5     2     2
 0.0000435431     4     5     2     3
 0.0021750951     4     5     3     2
 0.0173569313     4     5     3     3
 0.0135803356     4     5     4     5
 0.0165213252     4     5     5     4
 0.0027324651     4     6     1     2
 -0.0029126779     4     6     1     3
 0.0025543505     4     6     2     1
 -0.0027228162     4     6     3     1
 0.0092240556     4     6     4     6
 0.0098198577     4     6     6     4
 0.0335845076     5     1     1     5
 -0.0053865436     5     1     2     6
 -0.0050532681     5     1     3     6
 0.0284446900     5     1     5     1
 -0.0067337585     5     1     6     2
 -0.0063171283     5     1     6     3
 -0.0014885547     5     2     1     6
 -0.0511970087     5     2     2     4
 0.0683668195     5     2     2     5
 0.0408878154     5     2     3     4
 0.0511970087     5     2     3     5
 -0.0497008345     5     2     4     2
 0.0373681108     5     2     4     3
 0.0667107982     5     2     5     2
 0.0497008345     5     2     5     3
 -0.0017926792     5     2     6     1
 -0.0013964551     5     3     1     6
 -0.0343435921     5     3     2     4
 0.0511970087     5     3     2     5
 0.0511970087     5     3     3     4
 0.0618225962     5     3     3     5
 -0.0310151349     5     3     4     2
 0.0497008345     5     3     4     3
 0.0497008345     5     3     5     2
 0.0603578224     5     3     5     3
 -0.0016817628     5     3     6     1
 -0.0173569313     5     4     2     2
 0.0021750951     5     4     2     3
 0.0000435431     5     4     3     2
 0.0173569313     5     4     3     3
 0.0165213252     5     4     4     5
 0.0135803356     5     4     5     4
 0.4661271857     5     5     1     1
 0.4800483129     5     5     2     2
 0.0173569313     5     5     2     3
 0.0173569313     5     5     3     2
 0.4778296748     5     5     3     3
 0.4140918874     5     5     4     4
 0.4441935482     5     5     5     5
 0.2806037098     5     5     6     6
 -0.0029126779     5     6     1     2
 -0.0027324651     5     6     1     3
 -0.0027228162     5     6     2     1
 -0.0025543505     5     6     3     1
 0.0092240556     5     6     5     6
 0.0098198577     5     6     6     5
 0.0148834473     6     1     1     6
 0.0013964551     6     1     2     4
 -0.0014885547     6     1     2     5
 -0.0014885547     6     1     3     4
 -0.0013964551     6     1     3     5
 0.0016817628     6     1     4     2
 -0.0017926792     6     1     4     3
 -0.0017926792     6     1     5     2
 -0.0016817628     6     1     5     3
 0.0156972357     6     1     6     1
 0.0050532681     6     2     1     4
 -0.0053865436     6     2     1     5
 0.0072257498     6     2     2     6
 0.0063171283     6     2     4     1
 -0.0067337585     6     2     5     1
 0.0079524341     6     2     6     2
 -0.0053865436     6     3     1     4
 -0.0050532681     6     3     1     5
 0.0072257498     6     3     3     6
 -0.0067337585     6     3     4     1
 -0.0063171283     6     3     5     1
 0.0079524341     6     3     6     3
 0.0025543505     6     4     1     2
 -0.0027228162     6     4     1     3
 0.0027324651     6     4     2     1
 -0.0029126779     6     4     3     1
 0.0098198577     6     4     4     6
 0.0092240556     6     4     6     4
 -0.0027228162     6     5     1     2
 -0.0025543505     6     5     1     3
 -0.0029126779     6     5     2     1
 -0.0027324651     6     5     3     1
 0.0098198577     6     5     5     6
 0.0092240556     6     5     6     5
 0.3066598827     6     6     1     1
 0.2836071891     6     6     2     2
 0.2836071891     6     6     3     3
 0.2806037098     6     6     4     4
 0.2806037098     6     6     5     5
 0.3032679059     6     6     6     6
0.0 0 0 0 0
 -3.1751503575     1     1     0     0
 -3.2581596522     2     2     0     0
 -3.2581596522     3     3     0     0
 -2.4825072662     4     4     0     0
 -2.4825072662     5     5     0     0
 -1.2836815499     6     6     0     0
0.0 0 0 0 0
 -3.1751503575     1     1     0     0
 -3.2581596522     2     2     0     0
 -3.2581596522     3     3     0     0
 -2.4825072662     4     4     0     0
 -2.4825072662     5     5     0     0
 -1.2836815499     6     6     0     0
-97.6000372839 0 0 0 0
