&FCI NORB= 13,NELEC= 14,MS2=0,
 ORBSYM=1,1,1,1,1,1,1,1,1,1,1,1,1
 ISYM=1,
&END
 0.4030594360     1     1     2     2
 0.0042546417     1     1     2     4
 0.0064994224     1     1     2    10
 0.7129476223     1     1     3     3
 0.0735419935     1     1     3     5
 0.0528306578     1     1     3    11
 0.0042546417     1     1     4     2
 0.6220580907     1     1     4     4
 -0.0914486914     1     1     4    10
 0.0735419935     1     1     5     3
 0.6530848446     1     1     5     5
 0.1815178567     1     1     5    11
 0.6214581991     1     1     6     6
 0.0136997019     1     1     6    12
 0.2073057780     1     1     6    13
 0.6214581991     1     1     7     7
 0.2073057780     1     1     7    12
 -0.0136997019     1     1     7    13
 0.6072614909     1     1     8     8
 0.6072614909     1     1     9     9
 0.0064994224     1     1    10     2
 -0.0914486914     1     1    10     4
 0.5457326112     1     1    10    10
 0.0528306578     1     1    11     3
 0.1815178567     1     1    11     5
 0.5001866977     1     1    11    11
 0.0136997019     1     1    12     6
 0.2073057780     1     1    12     7
 0.5813723498     1     1    12    12
 0.2073057780     1     1    13     6
 -0.0136997019     1     1    13     7
 0.5813723498     1     1    13    13
 -0.4030594360     1     2     2     1
 -0.0050890360     1     2     2     3
 -0.0114384421     1     2     2     5
 -0.0095409304     1     2     2    11
 -0.1961254344     1     2     3     4
 0.1424990566     1     2     3    10
 -0.0042546417     1     2     4     1
 -0.1962427417     1     2     4     3
 0.2205226925     1     2     4     5
 0.0503195914     1     2     4    11
 0.2207637461     1     2     5     4
 0.1193615582     1     2     5    10
 0.1528566666     1     2     6     8
 0.1530748838     1     2     6     9
 0.1530748838     1     2     7     8
 -0.1528566666     1     2     7     9
 0.1526577812     1     2     8     6
 0.1528757145     1     2     8     7
 0.1302061986     1     2     8    12
 0.1138996925     1     2     8    13
 0.1528757145     1     2     9     6
 -0.1526577812     1     2     9     7
 -0.1138996925     1     2     9    12
 0.1302061986     1     2     9    13
 -0.0064994224     1     2    10     1
 0.1422855586     1     2    10     3
 0.1189992059     1     2    10     5
 0.0157092847     1     2    10    11
 0.0505395193     1     2    11     4
 0.0160136343     1     2    11    10
 0.1304282943     1     2    12     8
 -0.1140939738     1     2    12     9
 0.1140939738     1     2    13     8
 0.1304282943     1     2    13     9
 0.0050890360     1     3     2     2
 0.0001091056     1     3     2     4
 0.0001878630     1     3     2    10
 -0.7129476223     1     3     3     1
 -0.0155232013     1     3     3     5
 -0.0153939898     1     3     3    11
 0.1962427417     1     3     4     2
 -0.0059395432     1     3     4     4
 -0.0055158824     1     3     4    10
 -0.0735419935     1     3     5     1
 -0.0229389802     1     3     5     5
 -0.0173136021     1     3     5    11
 -0.0162618519     1     3     6     6
 -0.0014327034     1     3     6    12
 -0.0216798644     1     3     6    13
 -0.0162618519     1     3     7     7
 -0.0216798644     1     3     7    12
 0.0014327034     1     3     7    13
 -0.0155937811     1     3     8     8
 -0.0155937811     1     3     9     9
 -0.1422855586     1     3    10     2
 -0.0069762703     1     3    10     4
 -0.0038325075     1     3    10    10
 -0.0528306578     1     3    11     1
 -0.0122726213     1     3    11     5
 -0.0110917335     1     3    11    11
 -0.0008346234     1     3    12     6
 -0.0126296364     1     3    12     7
 -0.0166217569     1     3    12    12
 -0.0126296364     1     3    13     6
 0.0008346234     1     3    13     7
 -0.0166217569     1     3    13    13
 -0.0042546417     1     4     2     1
 -0.0001091056     1     4     2     3
 -0.0002440181     1     4     2     5
 -0.0002266367     1     4     2    11
 0.1961254344     1     4     3     2
 0.0018487858     1     4     3    10
 -0.6220580907     1     4     4     1
 0.0059395432     1     4     4     3
 0.0028930167     1     4     4     5
 0.0060580340     1     4     4    11
 -0.2207637461     1     4     5     2
 0.0148431822     1     4     5    10
 0.0095278463     1     4     6     8
 0.0095414482     1     4     6     9
 0.0095414482     1     4     7     8
 -0.0095278463     1     4     7     9
 0.0101869329     1     4     8     6
 0.0102014758     1     4     8     7
 0.0164442741     1     4     8    12
 0.0143848586     1     4     8    13
 0.0102014758     1     4     9     6
 -0.0101869329     1     4     9     7
 -0.0143848586     1     4     9    12
 0.0164442741     1     4     9    13
 0.0914486914     1     4    10     1
 0.0069762703     1     4    10     3
 0.0099207756     1     4    10     5
 0.0118506354     1     4    10    11
 -0.0505395193     1     4    11     2
 0.0094766012     1     4    11    10
 0.0104818335     1     4    12     8
 -0.0091691304     1     4    12     9
 0.0091691304     1     4    13     8
 0.0104818335     1     4    13     9
 0.0114384421     1     5     2     2
 0.0002440181     1     5     2     4
 0.0003709792     1     5     2    10
 -0.0735419935     1     5     3     1
 0.0155232013     1     5     3     3
 -0.0048401470     1     5     3    11
 -0.2205226925     1     5     4     2
 -0.0028930167     1     5     4     4
 0.0045186006     1     5     4    10
 -0.6530848446     1     5     5     1
 0.0229389802     1     5     5     3
 0.0071041590     1     5     5    11
 0.0113497193     1     5     6     6
 0.0005999644     1     5     6    12
 0.0090787443     1     5     6    13
 0.0113497193     1     5     7     7
 0.0090787443     1     5     7    12
 -0.0005999644     1     5     7    13
 0.0086092377     1     5     8     8
 0.0086092377     1     5     9     9
 -0.1189992059     1     5    10     2
 -0.0099207756     1     5    10     4
 0.0118622044     1     5    10    10
 -0.1815178567     1     5    11     1
 0.0122726213     1     5    11     3
 0.0017903745     1     5    11    11
 0.0003950645     1     5    12     6
 0.0059781712     1     5    12     7
 0.0086760319     1     5    12    12
 0.0059781712     1     5    13     6
 -0.0003950645     1     5    13     7
 0.0086760319     1     5    13    13
 0.0001931173     1     6     2     8
 0.0001933930     1     6     2     9
 -0.0005808108     1     6     3    12
 -0.0087889096     1     6     3    13
 -0.0009879689     1     6     4     8
 -0.0009893793     1     6     4     9
 0.0001819085     1     6     5    12
 0.0027526645     1     6     5    13
 -0.6214581991     1     6     6     1
 0.0162618519     1     6     6     3
 -0.0113497193     1     6     6     5
 -0.0082991646     1     6     6    11
 -0.1526577812     1     6     8     2
 -0.0101869329     1     6     8     4
 0.0085695261     1     6     8    10
 -0.1528757145     1     6     9     2
 -0.0102014758     1     6     9     4
 0.0085817599     1     6     9    10
 0.0003350510     1     6    10     8
 0.0003355294     1     6    10     9
 0.0002041739     1     6    11    12
 0.0030895880     1     6    11    13
 -0.0136997019     1     6    12     1
 0.0008346234     1     6    12     3
 -0.0003950645     1     6    12     5
 -0.0001922416     1     6    12    11
 -0.2073057780     1     6    13     1
 0.0126296364     1     6    13     3
 -0.0059781712     1     6    13     5
 -0.0029090261     1     6    13    11
 0.0001933930     1     7     2     8
 -0.0001931173     1     7     2     9
 -0.0087889096     1     7     3    12
 0.0005808108     1     7     3    13
 -0.0009893793     1     7     4     8
 0.0009879689     1     7     4     9
 0.0027526645     1     7     5    12
 -0.0001819085     1     7     5    13
 -0.6214581991     1     7     7     1
 0.0162618519     1     7     7     3
 -0.0113497193     1     7     7     5
 -0.0082991646     1     7     7    11
 -0.1528757145     1     7     8     2
 -0.0102014758     1     7     8     4
 0.0085817599     1     7     8    10
 0.1526577812     1     7     9     2
 0.0101869329     1     7     9     4
 -0.0085695261     1     7     9    10
 0.0003355294     1     7    10     8
 -0.0003350510     1     7    10     9
 0.0030895880     1     7    11    12
 -0.0002041739     1     7    11    13
 -0.2073057780     1     7    12     1
 0.0126296364     1     7    12     3
 -0.0059781712     1     7    12     5
 -0.0029090261     1     7    12    11
 0.0136997019     1     7    13     1
 -0.0008346234     1     7    13     3
 0.0003950645     1     7    13     5
 0.0001922416     1     7    13    11
 -0.0001931173     1     8     2     6
 -0.0001933930     1     8     2     7
 -0.0002254950     1     8     2    12
 -0.0001972549     1     8     2    13
 0.0009879689     1     8     4     6
 0.0009893793     1     8     4     7
 0.0055961231     1     8     4    12
 0.0048952869     1     8     4    13
 -0.1528566666     1     8     6     2
 -0.0095278463     1     8     6     4
 0.0080205818     1     8     6    10
 -0.1530748838     1     8     7     2
 -0.0095414482     1     8     7     4
 0.0080320318     1     8     7    10
 -0.6072614909     1     8     8     1
 0.0155937811     1     8     8     3
 -0.0086092377     1     8     8     5
 -0.0035975614     1     8     8    11
 -0.0003350510     1     8    10     6
 -0.0003355294     1     8    10     7
 -0.0022053127     1     8    10    12
 -0.0019291281     1     8    10    13
 -0.1304282943     1     8    12     2
 -0.0104818335     1     8    12     4
 0.0076585814     1     8    12    10
 -0.1140939738     1     8    13     2
 -0.0091691304     1     8    13     4
 0.0066994512     1     8    13    10
 -0.0001933930     1     9     2     6
 0.0001931173     1     9     2     7
 0.0001972549     1     9     2    12
 -0.0002254950     1     9     2    13
 0.0009893793     1     9     4     6
 -0.0009879689     1     9     4     7
 -0.0048952869     1     9     4    12
 0.0055961231     1     9     4    13
 -0.1530748838     1     9     6     2
 -0.0095414482     1     9     6     4
 0.0080320318     1     9     6    10
 0.1528566666     1     9     7     2
 0.0095278463     1     9     7     4
 -0.0080205818     1     9     7    10
 -0.6072614909     1     9     9     1
 0.0155937811     1     9     9     3
 -0.0086092377     1     9     9     5
 -0.0035975614     1     9     9    11
 -0.0003355294     1     9    10     6
 0.0003350510     1     9    10     7
 0.0019291281     1     9    10    12
 -0.0022053127     1     9    10    13
 0.1140939738     1     9    12     2
 0.0091691304     1     9    12     4
 -0.0066994512     1     9    12    10
 -0.1304282943     1     9    13     2
 -0.0104818335     1     9    13     4
 0.0076585814     1     9    13    10
 -0.0064994224     1    10     2     1
 -0.0001878630     1    10     2     3
 -0.0003709792     1    10     2     5
 -0.0002999877     1    10     2    11
 -0.1424990566     1    10     3     2
 -0.0018487858     1    10     3     4
 0.0914486914     1    10     4     1
 0.0055158824     1    10     4     3
 -0.0045186006     1    10     4     5
 0.0022529578     1    10     4    11
 -0.1193615582     1    10     5     2
 -0.0148431822     1    10     5     4
 -0.0080205818     1    10     6     8
 -0.0080320318     1    10     6     9
 -0.0080320318     1    10     7     8
 0.0080205818     1    10     7     9
 -0.0085695261     1    10     8     6
 -0.0085817599     1    10     8     7
 -0.0099240529     1    10     8    12
 -0.0086812039     1    10     8    13
 -0.0085817599     1    10     9     6
 0.0085695261     1    10     9     7
 0.0086812039     1    10     9    12
 -0.0099240529     1    10     9    13
 -0.5457326112     1    10    10     1
 0.0038325075     1    10    10     3
 -0.0118622044     1    10    10     5
 -0.0057652914     1    10    10    11
 -0.0160136343     1    10    11     2
 -0.0094766012     1    10    11     4
 -0.0076585814     1    10    12     8
 0.0066994512     1    10    12     9
 -0.0066994512     1    10    13     8
 -0.0076585814     1    10    13     9
 0.0095409304     1    11     2     2
 0.0002266367     1    11     2     4
 0.0002999877     1    11     2    10
 -0.0528306578     1    11     3     1
 0.0153939898     1    11     3     3
 0.0048401470     1    11     3     5
 -0.0503195914     1    11     4     2
 -0.0060580340     1    11     4     4
 -0.0022529578     1    11     4    10
 -0.1815178567     1    11     5     1
 0.0173136021     1    11     5     3
 -0.0071041590     1    11     5     5
 0.0082991646     1    11     6     6
 0.0004045635     1    11     6    12
 0.0061219112     1    11     6    13
 0.0082991646     1    11     7     7
 0.0061219112     1    11     7    12
 -0.0004045635     1    11     7    13
 0.0035975614     1    11     8     8
 0.0035975614     1    11     9     9
 -0.0157092847     1    11    10     2
 -0.0118506354     1    11    10     4
 0.0057652914     1    11    10    10
 -0.5001866977     1    11    11     1
 0.0110917335     1    11    11     3
 -0.0017903745     1    11    11     5
 0.0001922416     1    11    12     6
 0.0029090261     1    11    12     7
 0.0044597932     1    11    12    12
 0.0029090261     1    11    13     6
 -0.0001922416     1    11    13     7
 0.0044597932     1    11    13    13
 0.0002254950     1    12     2     8
 -0.0001972549     1    12     2     9
 0.0005808108     1    12     3     6
 0.0087889096     1    12     3     7
 -0.0055961231     1    12     4     8
 0.0048952869     1    12     4     9
 -0.0001819085     1    12     5     6
 -0.0027526645     1    12     5     7
 -0.0136997019     1    12     6     1
 0.0014327034     1    12     6     3
 -0.0005999644     1    12     6     5
 -0.0004045635     1    12     6    11
 -0.2073057780     1    12     7     1
 0.0216798644     1    12     7     3
 -0.0090787443     1    12     7     5
 -0.0061219112     1    12     7    11
 -0.1302061986     1    12     8     2
 -0.0164442741     1    12     8     4
 0.0099240529     1    12     8    10
 0.1138996925     1    12     9     2
 0.0143848586     1    12     9     4
 -0.0086812039     1    12     9    10
 0.0022053127     1    12    10     8
 -0.0019291281     1    12    10     9
 -0.0002041739     1    12    11     6
 -0.0030895880     1    12    11     7
 -0.5813723498     1    12    12     1
 0.0166217569     1    12    12     3
 -0.0086760319     1    12    12     5
 -0.0044597932     1    12    12    11
 0.0001972549     1    13     2     8
 0.0002254950     1    13     2     9
 0.0087889096     1    13     3     6
 -0.0005808108     1    13     3     7
 -0.0048952869     1    13     4     8
 -0.0055961231     1    13     4     9
 -0.0027526645     1    13     5     6
 0.0001819085     1    13     5     7
 -0.2073057780     1    13     6     1
 0.0216798644     1    13     6     3
 -0.0090787443     1    13     6     5
 -0.0061219112     1    13     6    11
 0.0136997019     1    13     7     1
 -0.0014327034     1    13     7     3
 0.0005999644     1    13     7     5
 0.0004045635     1    13     7    11
 -0.1138996925     1    13     8     2
 -0.0143848586     1    13     8     4
 0.0086812039     1    13     8    10
 -0.1302061986     1    13     9     2
 -0.0164442741     1    13     9     4
 0.0099240529     1    13     9    10
 0.0019291281     1    13    10     8
 0.0022053127     1    13    10     9
 -0.0030895880     1    13    11     6
 0.0002041739     1    13    11     7
 -0.5813723498     1    13    13     1
 0.0166217569     1    13    13     3
 -0.0086760319     1    13    13     5
 -0.0044597932     1    13    13    11
 -0.4030594360     2     1     1     2
 -0.0042546417     2     1     1     4
 -0.0064994224     2     1     1    10
 -0.0050890360     2     1     3     2
 -0.1962427417     2     1     3     4
 0.1422855586     2     1     3    10
 -0.1961254344     2     1     4     3
 0.2207637461     2     1     4     5
 0.0505395193     2     1     4    11
 -0.0114384421     2     1     5     2
 0.2205226925     2     1     5     4
 0.1189992059     2     1     5    10
 0.1526577812     2     1     6     8
 0.1528757145     2     1     6     9
 0.1528757145     2     1     7     8
 -0.1526577812     2     1     7     9
 0.1528566666     2     1     8     6
 0.1530748838     2     1     8     7
 0.1304282943     2     1     8    12
 0.1140939738     2     1     8    13
 0.1530748838     2     1     9     6
 -0.1528566666     2     1     9     7
 -0.1140939738     2     1     9    12
 0.1304282943     2     1     9    13
 0.1424990566     2     1    10     3
 0.1193615582     2     1    10     5
 0.0160136343     2     1    10    11
 -0.0095409304     2     1    11     2
 0.0503195914     2     1    11     4
 0.0157092847     2     1    11    10
 0.1302061986     2     1    12     8
 -0.1138996925     2     1    12     9
 0.1138996925     2     1    13     8
 0.1302061986     2     1    13     9
 0.4030594360     2     2     1     1
 0.0050890360     2     2     1     3
 0.0114384421     2     2     1     5
 0.0095409304     2     2     1    11
 0.0050890360     2     2     3     1
 0.7130526961     2     2     3     3
 0.0738053606     2     2     3     5
 0.0530423563     2     2     3    11
 0.6219705861     2     2     4     4
 -0.0915589882     2     2     4    10
 0.0114384421     2     2     5     1
 0.0738053606     2     2     5     3
 0.6537444880     2     2     5     5
 0.1820660029     2     2     5    11
 0.6217567845     2     2     6     6
 0.0137221675     2     2     6    12
 0.2076457294     2     2     6    13
 0.6217567845     2     2     7     7
 0.2076457294     2     2     7    12
 -0.0137221675     2     2     7    13
 0.6070322485     2     2     8     8
 0.6070322485     2     2     9     9
 -0.0915589882     2     2    10     4
 0.5455055720     2     2    10    10
 0.0095409304     2     2    11     1
 0.0530423563     2     2    11     3
 0.1820660029     2     2    11     5
 0.5006541759     2     2    11    11
 0.0137221675     2     2    12     6
 0.2076457294     2     2    12     7
 0.5817507980     2     2    12    12
 0.2076457294     2     2    13     6
 -0.0137221675     2     2    13     7
 0.5817507980     2     2    13    13
 -0.0050890360     2     3     1     2
 -0.0001091056     2     3     1     4
 -0.0001878630     2     3     1    10
 -0.7130526961     2     3     3     2
 -0.0069775756     2     3     3     4
 -0.0104875559     2     3     3    10
 0.1961254344     2     3     4     1
 -0.0128361071     2     3     4     5
 -0.0065638776     2     3     4    11
 -0.0738053606     2     3     5     2
 -0.0166742202     2     3     5     4
 -0.0121510844     2     3     5    10
 -0.0141160535     2     3     6     8
 -0.0141362056     2     3     6     9
 -0.0141362056     2     3     7     8
 0.0141160535     2     3     7     9
 -0.0105939049     2     3     8     6
 -0.0106090286     2     3     8     7
 -0.0147019771     2     3     8    12
 -0.0128607601     2     3     8    13
 -0.0106090286     2     3     9     6
 0.0105939049     2     3     9     7
 0.0128607601     2     3     9    12
 -0.0147019771     2     3     9    13
 -0.1424990566     2     3    10     1
 -0.0104806386     2     3    10     5
 -0.0070691522     2     3    10    11
 -0.0530423563     2     3    11     2
 -0.0081017852     2     3    11     4
 -0.0048744822     2     3    11    10
 -0.0116467304     2     3    12     8
 0.0101881402     2     3    12     9
 -0.0101881402     2     3    13     8
 -0.0116467304     2     3    13     9
 0.0042546417     2     4     1     1
 0.0001091056     2     4     1     3
 0.0002440181     2     4     1     5
 0.0002266367     2     4     1    11
 0.1962427417     2     4     3     1
 0.0069775756     2     4     3     3
 0.0038608724     2     4     3     5
 0.0017855524     2     4     3    11
 -0.6219705861     2     4     4     2
 0.0033578221     2     4     4    10
 -0.2205226925     2     4     5     1
 0.0166742202     2     4     5     3
 0.0200633624     2     4     5     5
 0.0200415440     2     4     5    11
 0.0179429441     2     4     6     6
 0.0013395868     2     4     6    12
 0.0202708121     2     4     6    13
 0.0179429441     2     4     7     7
 0.0202708121     2     4     7    12
 -0.0013395868     2     4     7    13
 0.0194472961     2     4     8     8
 0.0194472961     2     4     9     9
 0.0915589882     2     4    10     2
 0.0118510105     2     4    10    10
 -0.0503195914     2     4    11     1
 0.0081017852     2     4    11     3
 0.0100688901     2     4    11     5
 0.0101315214     2     4    11    11
 0.0009224216     2     4    12     6
 0.0139582102     2     4    12     7
 0.0189632996     2     4    12    12
 0.0139582102     2     4    13     6
 -0.0009224216     2     4    13     7
 0.0189632996     2     4    13    13
 -0.0114384421     2     5     1     2
 -0.0002440181     2     5     1     4
 -0.0003709792     2     5     1    10
 -0.0738053606     2     5     3     2
 -0.0038608724     2     5     3     4
 -0.0014633334     2     5     3    10
 -0.2207637461     2     5     4     1
 0.0128361071     2     5     4     3
 0.0097232456     2     5     4    11
 -0.6537444880     2     5     5     2
 -0.0200633624     2     5     5     4
 0.0063228127     2     5     5    10
 0.0005724618     2     5     6     8
 0.0005732791     2     5     6     9
 0.0005732791     2     5     7     8
 -0.0005724618     2     5     7     9
 0.0015899952     2     5     8     6
 0.0015922650     2     5     8     7
 0.0056034425     2     5     8    12
 0.0049016897     2     5     8    13
 0.0015922650     2     5     9     6
 -0.0015899952     2     5     9     7
 -0.0049016897     2     5     9    12
 0.0056034425     2     5     9    13
 -0.1193615582     2     5    10     1
 0.0104806386     2     5    10     3
 0.0071818989     2     5    10    11
 -0.1820660029     2     5    11     2
 -0.0100688901     2     5    11     4
 0.0082793653     2     5    11    10
 0.0021146099     2     5    12     8
 -0.0018497846     2     5    12     9
 0.0018497846     2     5    13     8
 0.0021146099     2     5    13     9
 -0.0001931173     2     6     1     8
 -0.0001933930     2     6     1     9
 -0.0030111365     2     6     3     8
 -0.0030154352     2     6     3     9
 0.0003856149     2     6     4    12
 0.0058351787     2     6     4    13
 -0.0008895284     2     6     5     8
 -0.0008907984     2     6     5     9
 -0.6217567845     2     6     6     2
 -0.0179429441     2     6     6     4
 0.0053620150     2     6     6    10
 -0.1528566666     2     6     8     1
 0.0105939049     2     6     8     3
 -0.0015899952     2     6     8     5
 0.0007881693     2     6     8    11
 -0.1530748838     2     6     9     1
 0.0106090286     2     6     9     3
 -0.0015922650     2     6     9     5
 0.0007892945     2     6     9    11
 -0.0001579718     2     6    10    12
 -0.0023904507     2     6    10    13
 0.0006312041     2     6    11     8
 0.0006321052     2     6    11     9
 -0.0137221675     2     6    12     2
 -0.0009224216     2     6    12     4
 0.0005055035     2     6    12    10
 -0.2076457294     2     6    13     2
 -0.0139582102     2     6    13     4
 0.0076493492     2     6    13    10
 -0.0001933930     2     7     1     8
 0.0001931173     2     7     1     9
 -0.0030154352     2     7     3     8
 0.0030111365     2     7     3     9
 0.0058351787     2     7     4    12
 -0.0003856149     2     7     4    13
 -0.0008907984     2     7     5     8
 0.0008895284     2     7     5     9
 -0.6217567845     2     7     7     2
 -0.0179429441     2     7     7     4
 0.0053620150     2     7     7    10
 -0.1530748838     2     7     8     1
 0.0106090286     2     7     8     3
 -0.0015922650     2     7     8     5
 0.0007892945     2     7     8    11
 0.1528566666     2     7     9     1
 -0.0105939049     2     7     9     3
 0.0015899952     2     7     9     5
 -0.0007881693     2     7     9    11
 -0.0023904507     2     7    10    12
 0.0001579718     2     7    10    13
 0.0006321052     2     7    11     8
 -0.0006312041     2     7    11     9
 -0.2076457294     2     7    12     2
 -0.0139582102     2     7    12     4
 0.0076493492     2     7    12    10
 0.0137221675     2     7    13     2
 0.0009224216     2     7    13     4
 -0.0005055035     2     7    13    10
 0.0001931173     2     8     1     6
 0.0001933930     2     8     1     7
 0.0002254950     2     8     1    12
 0.0001972549     2     8     1    13
 0.0030111365     2     8     3     6
 0.0030154352     2     8     3     7
 -0.0029897150     2     8     3    12
 -0.0026152950     2     8     3    13
 0.0008895284     2     8     5     6
 0.0008907984     2     8     5     7
 0.0033697667     2     8     5    12
 0.0029477505     2     8     5    13
 -0.1526577812     2     8     6     1
 0.0141160535     2     8     6     3
 -0.0005724618     2     8     6     5
 0.0002694748     2     8     6    11
 -0.1528757145     2     8     7     1
 0.0141362056     2     8     7     3
 -0.0005732791     2     8     7     5
 0.0002698594     2     8     7    11
 -0.6070322485     2     8     8     2
 -0.0194472961     2     8     8     4
 0.0095718255     2     8     8    10
 -0.0006312041     2     8    11     6
 -0.0006321052     2     8    11     7
 0.0015852672     2     8    11    12
 0.0013867346     2     8    11    13
 -0.1302061986     2     8    12     1
 0.0116467304     2     8    12     3
 -0.0021146099     2     8    12     5
 -0.0000917144     2     8    12    11
 -0.1138996925     2     8    13     1
 0.0101881402     2     8    13     3
 -0.0018497846     2     8    13     5
 -0.0000802286     2     8    13    11
 0.0001933930     2     9     1     6
 -0.0001931173     2     9     1     7
 -0.0001972549     2     9     1    12
 0.0002254950     2     9     1    13
 0.0030154352     2     9     3     6
 -0.0030111365     2     9     3     7
 0.0026152950     2     9     3    12
 -0.0029897150     2     9     3    13
 0.0008907984     2     9     5     6
 -0.0008895284     2     9     5     7
 -0.0029477505     2     9     5    12
 0.0033697667     2     9     5    13
 -0.1528757145     2     9     6     1
 0.0141362056     2     9     6     3
 -0.0005732791     2     9     6     5
 0.0002698594     2     9     6    11
 0.1526577812     2     9     7     1
 -0.0141160535     2     9     7     3
 0.0005724618     2     9     7     5
 -0.0002694748     2     9     7    11
 -0.6070322485     2     9     9     2
 -0.0194472961     2     9     9     4
 0.0095718255     2     9     9    10
 -0.0006321052     2     9    11     6
 0.0006312041     2     9    11     7
 -0.0013867346     2     9    11    12
 0.0015852672     2     9    11    13
 0.1138996925     2     9    12     1
 -0.0101881402     2     9    12     3
 0.0018497846     2     9    12     5
 0.0000802286     2     9    12    11
 -0.1302061986     2     9    13     1
 0.0116467304     2     9    13     3
 -0.0021146099     2     9    13     5
 -0.0000917144     2     9    13    11
 0.0064994224     2    10     1     1
 0.0001878630     2    10     1     3
 0.0003709792     2    10     1     5
 0.0002999877     2    10     1    11
 -0.1422855586     2    10     3     1
 0.0104875559     2    10     3     3
 0.0014633334     2    10     3     5
 -0.0022070533     2    10     3    11
 0.0915589882     2    10     4     2
 -0.0033578221     2    10     4     4
 -0.1189992059     2    10     5     1
 0.0121510844     2    10     5     3
 -0.0063228127     2    10     5     5
 -0.0013739582     2    10     5    11
 -0.0053620150     2    10     6     6
 -0.0006622639     2    10     6    12
 -0.0100214687     2    10     6    13
 -0.0053620150     2    10     7     7
 -0.0100214687     2    10     7    12
 0.0006622639     2    10     7    13
 -0.0095718255     2    10     8     8
 -0.0095718255     2    10     9     9
 -0.5455055720     2    10    10     2
 -0.0118510105     2    10    10     4
 -0.0157092847     2    10    11     1
 0.0048744822     2    10    11     3
 -0.0082793653     2    10    11     5
 -0.0064645799     2    10    11    11
 -0.0005055035     2    10    12     6
 -0.0076493492     2    10    12     7
 -0.0092850400     2    10    12    12
 -0.0076493492     2    10    13     6
 0.0005055035     2    10    13     7
 -0.0092850400     2    10    13    13
 -0.0095409304     2    11     1     2
 -0.0002266367     2    11     1     4
 -0.0002999877     2    11     1    10
 -0.0530423563     2    11     3     2
 -0.0017855524     2    11     3     4
 0.0022070533     2    11     3    10
 -0.0505395193     2    11     4     1
 0.0065638776     2    11     4     3
 -0.0097232456     2    11     4     5
 -0.1820660029     2    11     5     2
 -0.0200415440     2    11     5     4
 0.0013739582     2    11     5    10
 -0.0002694748     2    11     6     8
 -0.0002698594     2    11     6     9
 -0.0002698594     2    11     7     8
 0.0002694748     2    11     7     9
 -0.0007881693     2    11     8     6
 -0.0007892945     2    11     8     7
 0.0016832059     2    11     8    12
 0.0014724080     2    11     8    13
 -0.0007892945     2    11     9     6
 0.0007881693     2    11     9     7
 -0.0014724080     2    11     9    12
 0.0016832059     2    11     9    13
 -0.0160136343     2    11    10     1
 0.0070691522     2    11    10     3
 -0.0071818989     2    11    10     5
 -0.5006541759     2    11    11     2
 -0.0101315214     2    11    11     4
 0.0064645799     2    11    11    10
 0.0000917144     2    11    12     8
 -0.0000802286     2    11    12     9
 0.0000802286     2    11    13     8
 0.0000917144     2    11    13     9
 -0.0002254950     2    12     1     8
 0.0001972549     2    12     1     9
 0.0029897150     2    12     3     8
 -0.0026152950     2    12     3     9
 -0.0003856149     2    12     4     6