&FCI NORB= 13,NELEC= 14,MS2=0,
 ORBSYM=1,1,1,1,1,1,1,1,1,1,1,1,1
 ISYM=1,
&END
 0.2302775867     1     1     2     2
 -0.0003752467     1     1     2     4
 -0.0035671419     1     1     2    10
 0.0031345217     1     1     2    13
 0.5696454061     1     1     3     3
 -0.0000000093     1     1     3     4
 0.0053458486     1     1     3     5
 0.0000000014     1     1     3    10
 0.0000000023     1     1     3    13
 -0.0003752467     1     1     4     2
 -0.0000000093     1     1     4     3
 0.5770983140     1     1     4     4
 0.0000000025     1     1     4     5
 -0.0367449738     1     1     4    10
 -0.1184794146     1     1     4    13
 0.0053458486     1     1     5     3
 0.0000000025     1     1     5     4
 0.5445732066     1     1     5     5
 0.0000000085     1     1     5    10
 -0.0000000044     1     1     5    13
 0.5360536073     1     1     6     6
 0.0000000047     1     1     6     8
 -0.0000000074     1     1     6     9
 0.0124508132     1     1     6    11
 0.2031756882     1     1     6    12
 0.5360536073     1     1     7     7
 -0.0000000074     1     1     7     8
 -0.0000000047     1     1     7     9
 0.2031756882     1     1     7    11
 -0.0124508132     1     1     7    12
 0.0000000047     1     1     8     6
 -0.0000000074     1     1     8     7
 0.5519477266     1     1     8     8
 -0.0000000047     1     1     8    11
 0.0000000034     1     1     8    12
 -0.0000000074     1     1     9     6
 -0.0000000047     1     1     9     7
 0.5519477266     1     1     9     9
 -0.0000000034     1     1     9    11
 -0.0000000047     1     1     9    12
 -0.0035671419     1     1    10     2
 0.0000000014     1     1    10     3
 -0.0367449738     1     1    10     4
 0.0000000085     1     1    10     5
 0.5843476537     1     1    10    10
 -0.1631053127     1     1    10    13
 0.0124508132     1     1    11     6
 0.2031756882     1     1    11     7
 -0.0000000047     1     1    11     8
 -0.0000000034     1     1    11     9
 0.5376123111     1     1    11    11
 0.2031756882     1     1    12     6
 -0.0124508132     1     1    12     7
 0.0000000034     1     1    12     8
 -0.0000000047     1     1    12     9
 0.5376123111     1     1    12    12
 0.0031345217     1     1    13     2
 0.0000000023     1     1    13     3
 -0.1184794146     1     1    13     4
 -0.0000000044     1     1    13     5
 -0.1631053127     1     1    13    10
 0.4834615085     1     1    13    13
 -0.2302775867     1     2     2     1
 -0.0001915629     1     2     2     3
 -0.0033572760     1     2     2     5
 0.0000000001     1     2     2    13
 0.3406150733     1     2     3     4
 -0.0512834480     1     2     3    10
 -0.0844405046     1     2     3    13
 0.0003752467     1     2     4     1
 0.3406160141     1     2     4     3
 -0.0880217899     1     2     4     5
 -0.0880348399     1     2     5     4
 -0.3110982902     1     2     5    10
 0.1599835896     1     2     5    13
 -0.1709931782     1     2     6     8
 0.2708083532     1     2     6     9
 0.2708083532     1     2     7     8
 0.1709931782     1     2     7     9
 -0.1709662830     1     2     8     6
 0.2707657583     1     2     8     7
 0.1741972588     1     2     8    11
 -0.1255231962     1     2     8    12
 0.2707657583     1     2     9     6
 0.1709662830     1     2     9     7
 0.1255231962     1     2     9    11
 0.1741972588     1     2     9    12
 0.0035671419     1     2    10     1
 -0.0512750088     1     2    10     3
 -0.3109944679     1     2    10     5
 0.1742443472     1     2    11     8
 0.1255571273     1     2    11     9
 -0.1255571273     1     2    12     8
 0.1742443472     1     2    12     9
 -0.0031345217     1     2    13     1
 -0.0844480260     1     2    13     3
 0.1598920107     1     2    13     5
 0.0001915629     1     3     2     2
 -0.0000009408     1     3     2     4
 -0.0000084392     1     3     2    10
 0.0000075214     1     3     2    13
 -0.5696454061     1     3     3     1
 -0.0026377905     1     3     3     5
 0.0000000093     1     3     4     1
 -0.3406160141     1     3     4     2
 -0.0004522000     1     3     4     4
 -0.0036010322     1     3     4    10
 0.0034962397     1     3     4    13
 -0.0053458486     1     3     5     1
 -0.0178497609     1     3     5     5
 -0.0000000003     1     3     5    10
 0.0000000003     1     3     5    13
 -0.0177603299     1     3     6     6
 -0.0000000001     1     3     6     8
 0.0000000003     1     3     6     9
 -0.0013886121     1     3     6    11
 -0.0226597415     1     3     6    12
 -0.0177603299     1     3     7     7
 0.0000000003     1     3     7     8
 0.0000000001     1     3     7     9
 -0.0226597415     1     3     7    11
 0.0013886121     1     3     7    12
 -0.0000000001     1     3     8     6
 0.0000000003     1     3     8     7
 -0.0187084736     1     3     8     8
 0.0000000003     1     3     8    11
 -0.0000000002     1     3     8    12
 0.0000000003     1     3     9     6
 0.0000000001     1     3     9     7
 -0.0187084736     1     3     9     9
 0.0000000002     1     3     9    11
 0.0000000003     1     3     9    12
 -0.0000000014     1     3    10     1
 0.0512750088     1     3    10     2
 -0.0026901161     1     3    10     4
 -0.0000000003     1     3    10     5
 -0.0197632088     1     3    10    10
 0.0185963877     1     3    10    13
 -0.0009205417     1     3    11     6
 -0.0150216440     1     3    11     7
 0.0000000002     1     3    11     8
 0.0000000002     1     3    11     9
 -0.0196969436     1     3    11    11
 -0.0150216440     1     3    12     6
 0.0009205417     1     3    12     7
 -0.0000000002     1     3    12     8
 0.0000000002     1     3    12     9
 -0.0196969436     1     3    12    12
 -0.0000000023     1     3    13     1
 0.0844480260     1     3    13     2
 0.0017695130     1     3    13     4
 0.0000000002     1     3    13     5
 0.0129872029     1     3    13    10
 -0.0130635139     1     3    13    13
 0.0003752467     1     4     2     1
 0.0000009408     1     4     2     3
 0.0000130500     1     4     2     5
 0.0000000093     1     4     3     1
 -0.3406150733     1     4     3     2
 -0.0009109161     1     4     3    10
 0.0017267267     1     4     3    13
 -0.5770983140     1     4     4     1
 0.0004522000     1     4     4     3
 0.0005749875     1     4     4     5
 -0.0000000001     1     4     4    13
 -0.0000000025     1     4     5     1
 0.0880348399     1     4     5     2
 0.0000000003     1     4     5     5
 0.0192623320     1     4     5    10
 -0.0172262864     1     4     5    13
 0.0000000003     1     4     6     6
 0.0098345990     1     4     6     8
 -0.0155754258     1     4     6     9
 0.0000000003     1     4     6    12
 0.0000000003     1     4     7     7
 -0.0155754258     1     4     7     8
 -0.0098345990     1     4     7     9
 0.0000000003     1     4     7    11
 0.0100459807     1     4     8     6
 -0.0159101990     1     4     8     7
 0.0000000003     1     4     8     8
 -0.0195834491     1     4     8    11
 0.0141114571     1     4     8    12
 -0.0159101990     1     4     9     6
 -0.0100459807     1     4     9     7
 0.0000000003     1     4     9     9
 -0.0141114571     1     4     9    11
 -0.0195834491     1     4     9    12
 0.0367449738     1     4    10     1
 0.0026901161     1     4    10     3
 0.0188848354     1     4    10     5
 0.0000000003     1     4    10    10
 -0.0000000003     1     4    10    13
 0.0000000002     1     4    11     7
 -0.0135275296     1     4    11     8
 -0.0097476779     1     4    11     9
 0.0000000003     1     4    11    11
 0.0000000002     1     4    12     6
 0.0097476779     1     4    12     8
 -0.0135275296     1     4    12     9
 0.0000000003     1     4    12    12
 0.1184794146     1     4    13     1
 -0.0017695130     1     4    13     3
 -0.0118321568     1     4    13     5
 -0.0000000002     1     4    13    10
 0.0000000002     1     4    13    13
 0.0033572760     1     5     2     2
 -0.0000130500     1     5     2     4
 -0.0001038223     1     5     2    10
 0.0000915789     1     5     2    13
 -0.0053458486     1     5     3     1
 0.0026377905     1     5     3     3
 0.0000000001     1     5     3    13
 -0.0000000025     1     5     4     1
 0.0880217899     1     5     4     2
 -0.0005749875     1     5     4     4
 0.0003774966     1     5     4    10
 -0.0053941296     1     5     4    13
 -0.5445732066     1     5     5     1
 0.0178497609     1     5     5     3
 -0.0000000003     1     5     5     4
 0.0035605881     1     5     6     6
 0.0001138518     1     5     6    11
 0.0018578640     1     5     6    12
 0.0035605881     1     5     7     7
 0.0018578640     1     5     7    11
 -0.0001138518     1     5     7    12
 0.0035980713     1     5     8     8
 0.0035980713     1     5     9     9
 -0.0000000085     1     5    10     1
 0.3109944679     1     5    10     2
 0.0000000003     1     5    10     3
 -0.0188848354     1     5    10     4
 0.0081465627     1     5    10    10
 0.0023253268     1     5    10    13
 0.0001391486     1     5    11     6
 0.0022706643     1     5    11     7
 0.0047523529     1     5    11    11
 0.0022706643     1     5    12     6
 -0.0001391486     1     5    12     7
 0.0047523529     1     5    12    12
 0.0000000044     1     5    13     1
 -0.1598920107     1     5    13     2
 -0.0000000002     1     5    13     3
 0.0118321568     1     5    13     4
 -0.0043716994     1     5    13    10
 -0.0058930358     1     5    13    13
 -0.0000268952     1     6     2     8
 0.0000425949     1     6     2     9
 -0.0004680704     1     6     3    11
 -0.0076380975     1     6     3    12
 -0.0002113817     1     6     4     8
 0.0003347732     1     6     4     9
 0.0000000001     1     6     4    12
 -0.0000252968     1     6     5    11
 -0.0004128003     1     6     5    12
 -0.5360536073     1     6     6     1
 0.0177603299     1     6     6     3
 -0.0000000003     1     6     6     4
 -0.0035605881     1     6     6     5
 0.0000000002     1     6     6    13
 -0.0000000047     1     6     8     1
 0.1709662830     1     6     8     2
 0.0000000001     1     6     8     3
 -0.0100459807     1     6     8     4
 0.0025840133     1     6     8    10
 0.0026904932     1     6     8    13
 0.0000000074     1     6     9     1
 -0.2707657583     1     6     9     2
 -0.0000000003     1     6     9     3
 0.0159101990     1     6     9     4
 -0.0040923994     1     6     9    10
 -0.0042610358     1     6     9    13
 -0.0000421188     1     6    10     8
 0.0000667052     1     6    10     9
 -0.0124508132     1     6    11     1
 0.0009205417     1     6    11     3
 -0.0001391486     1     6    11     5
 -0.2031756882     1     6    12     1
 0.0150216440     1     6    12     3
 -0.0000000002     1     6    12     4
 -0.0022706643     1     6    12     5
 0.0000000001     1     6    12    13
 -0.0000019285     1     6    13     8
 0.0000030541     1     6    13     9
 0.0000425949     1     7     2     8
 0.0000268952     1     7     2     9
 -0.0076380975     1     7     3    11
 0.0004680704     1     7     3    12
 0.0003347732     1     7     4     8
 0.0002113817     1     7     4     9
 0.0000000001     1     7     4    11
 -0.0004128003     1     7     5    11
 0.0000252968     1     7     5    12
 -0.5360536073     1     7     7     1
 0.0177603299     1     7     7     3
 -0.0000000003     1     7     7     4
 -0.0035605881     1     7     7     5
 0.0000000002     1     7     7    13
 0.0000000074     1     7     8     1
 -0.2707657583     1     7     8     2
 -0.0000000003     1     7     8     3
 0.0159101990     1     7     8     4
 -0.0040923994     1     7     8    10
 -0.0042610358     1     7     8    13
 0.0000000047     1     7     9     1
 -0.1709662830     1     7     9     2
 -0.0000000001     1     7     9     3
 0.0100459807     1     7     9     4
 -0.0025840133     1     7     9    10
 -0.0026904932     1     7     9    13
 0.0000667052     1     7    10     8
 0.0000421188     1     7    10     9
 -0.2031756882     1     7    11     1
 0.0150216440     1     7    11     3
 -0.0000000002     1     7    11     4
 -0.0022706643     1     7    11     5
 0.0000000001     1     7    11    13
 0.0124508132     1     7    12     1
 -0.0009205417     1     7    12     3
 0.0001391486     1     7    12     5
 0.0000030541     1     7    13     8
 0.0000019285     1     7    13     9
 0.0000268952     1     8     2     6
 -0.0000425949     1     8     2     7
 -0.0000470884     1     8     2    11
 0.0000339311     1     8     2    12
 0.0000000001     1     8     3    11
 0.0002113817     1     8     4     6
 -0.0003347732     1     8     4     7
 -0.0060559195     1     8     4    11
 0.0043637792     1     8     4    12
 -0.0000000047     1     8     6     1
 0.1709931782     1     8     6     2
 0.0000000001     1     8     6     3
 -0.0098345990     1     8     6     4
 0.0026261321     1     8     6    10
 0.0026924217     1     8     6    13
 0.0000000074     1     8     7     1
 -0.2708083532     1     8     7     2
 -0.0000000003     1     8     7     3
 0.0155754258     1     8     7     4
 -0.0041591046     1     8     7    10
 -0.0042640899     1     8     7    13
 -0.5519477266     1     8     8     1
 0.0187084736     1     8     8     3
 -0.0000000003     1     8     8     4
 -0.0035980713     1     8     8     5
 0.0000000001     1     8     8    13
 0.0000421188     1     8    10     6
 -0.0000667052     1     8    10     7
 0.0010015750     1     8    10    11
 -0.0007217157     1     8    10    12
 0.0000000047     1     8    11     1
 -0.1742443472     1     8    11     2
 -0.0000000002     1     8    11     3
 0.0135275296     1     8    11     4
 -0.0029008379     1     8    11    10
 -0.0071934230     1     8    11    13
 -0.0000000034     1     8    12     1
 0.1255571273     1     8    12     2
 0.0000000002     1     8    12     3
 -0.0097476779     1     8    12     4
 0.0020902881     1     8    12    10
 0.0051834423     1     8    12    13
 0.0000019285     1     8    13     6
 -0.0000030541     1     8    13     7
 -0.0007578138     1     8    13    11
 0.0005460660     1     8    13    12
 -0.0000425949     1     9     2     6
 -0.0000268952     1     9     2     7
 -0.0000339311     1     9     2    11
 -0.0000470884     1     9     2    12
 0.0000000001     1     9     3    12
 -0.0003347732     1     9     4     6
 -0.0002113817     1     9     4     7
 -0.0043637792     1     9     4    11
 -0.0060559195     1     9     4    12
 0.0000000074     1     9     6     1
 -0.2708083532     1     9     6     2
 -0.0000000003     1     9     6     3
 0.0155754258     1     9     6     4
 -0.0041591046     1     9     6    10
 -0.0042640899     1     9     6    13
 0.0000000047     1     9     7     1
 -0.1709931782     1     9     7     2
 -0.0000000001     1     9     7     3
 0.0098345990     1     9     7     4
 -0.0026261321     1     9     7    10
 -0.0026924217     1     9     7    13
 -0.5519477266     1     9     9     1
 0.0187084736     1     9     9     3
 -0.0000000003     1     9     9     4
 -0.0035980713     1     9     9     5
 0.0000000001     1     9     9    13
 -0.0000667052     1     9    10     6
 -0.0000421188     1     9    10     7
 0.0007217157     1     9    10    11
 0.0010015750     1     9    10    12
 0.0000000034     1     9    11     1
 -0.1255571273     1     9    11     2
 -0.0000000002     1     9    11     3
 0.0097476779     1     9    11     4
 -0.0020902881     1     9    11    10
 -0.0051834423     1     9    11    13
 0.0000000047     1     9    12     1
 -0.1742443472     1     9    12     2
 -0.0000000002     1     9    12     3
 0.0135275296     1     9    12     4
 -0.0029008379     1     9    12    10
 -0.0071934230     1     9    12    13
 -0.0000030541     1     9    13     6
 -0.0000019285     1     9    13     7
 -0.0005460660     1     9    13    11
 -0.0007578138     1     9    13    12
 0.0035671419     1    10     2     1
 0.0000084392     1    10     2     3
 0.0001038223     1    10     2     5
 -0.0000000014     1    10     3     1
 0.0512834480     1    10     3     2
 0.0009109161     1    10     3     4
 0.0056091848     1    10     3    13
 0.0367449738     1    10     4     1
 0.0036010322     1    10     4     3
 -0.0003774966     1    10     4     5
 -0.0000000001     1    10     4    13
 -0.0000000085     1    10     5     1
 0.3110982902     1    10     5     2
 0.0000000003     1    10     5     3
 -0.0192623320     1    10     5     4
 0.0066970262     1    10     5    13
 -0.0026261321     1    10     6     8
 0.0041591046     1    10     6     9
 0.0041591046     1    10     7     8
 0.0026261321     1    10     7     9
 -0.0025840133     1    10     8     6
 0.0040923994     1    10     8     7
 0.0039024129     1    10     8    11
 -0.0028120038     1    10     8    12
 0.0040923994     1    10     9     6
 0.0025840133     1    10     9     7
 0.0028120038     1    10     9    11
 0.0039024129     1    10     9    12
 -0.5843476537     1    10    10     1
 0.0197632088     1    10    10     3
 -0.0000000003     1    10    10     4
 -0.0081465627     1    10    10     5
 0.0000000001     1    10    10    13
 0.0029008379     1    10    11     8
 0.0020902881     1    10    11     9
 -0.0020902881     1    10    12     8
 0.0029008379     1    10    12     9
 0.1631053127     1    10    13     1
 -0.0129872029     1    10    13     3
 0.0000000002     1    10    13     4
 0.0043716994     1    10    13     5
 -0.0000000002     1    10    13    13
 0.0000470884     1    11     2     8
 0.0000339311     1    11     2     9
 0.0004680704     1    11     3     6
 0.0076380975     1    11     3     7
 -0.0000000001     1    11     3     8
 -0.0000000001     1    11     4     7
 0.0060559195     1    11     4     8
 0.0043637792     1    11     4     9
 0.0000252968     1    11     5     6
 0.0004128003     1    11     5     7
 -0.0124508132     1    11     6     1
 0.0013886121     1    11     6     3
 -0.0001138518     1    11     6     5
 -0.2031756882     1    11     7     1
 0.0226597415     1    11     7     3
 -0.0000000003     1    11     7     4
 -0.0018578640     1    11     7     5
 0.0000000001     1    11     7    13
 0.0000000047     1    11     8     1
 -0.1741972588     1    11     8     2
 -0.0000000003     1    11     8     3
 0.0195834491     1    11     8     4
 -0.0039024129     1    11     8    10
 -0.0064356092     1    11     8    13
 0.0000000034     1    11     9     1
 -0.1255231962     1    11     9     2
 -0.0000000002     1    11     9     3
 0.0141114571     1    11     9     4
 -0.0028120038     1    11     9    10
 -0.0046373763     1    11     9    13
 -0.0010015750     1    11    10     8
 -0.0007217157     1    11    10     9
 -0.5376123111     1    11    11     1
 0.0196969436     1    11    11     3
 -0.0000000003     1    11    11     4
 -0.0047523529     1    11    11     5
 0.0000000002     1    11    11    13
 0.0007578138     1    11    13     8
 0.0005460660     1    11    13     9
 -0.0000339311     1    12     2     8
 0.0000470884     1    12     2     9
 0.0076380975     1    12     3     6
 -0.0004680704     1    12     3     7
 -0.0000000001     1    12     3     9
 -0.0000000001     1    12     4     6
 -0.0043637792     1    12     4     8
 0.0060559195     1    12     4     9
 0.0004128003     1    12     5     6
 -0.0000252968     1    12     5     7
 -0.2031756882     1    12     6     1
 0.0226597415     1    12     6     3
 -0.0000000003     1    12     6     4
 -0.0018578640     1    12     6     5
 0.0000000001     1    12     6    13
 0.0124508132     1    12     7     1
 -0.0013886121     1    12     7     3
 0.0001138518     1    12     7     5
 -0.0000000034     1    12     8     1
 0.1255231962     1    12     8     2
 0.0000000002     1    12     8     3
 -0.0141114571     1    12     8     4
 0.0028120038     1    12     8    10
 0.0046373763     1    12     8    13
 0.0000000047     1    12     9     1
 -0.1741972588     1    12     9     2
 -0.0000000003     1    12     9     3
 0.0195834491     1    12     9     4
 -0.0039024129     1    12     9    10
 -0.0064356092     1    12     9    13
 0.0007217157     1    12    10     8
 -0.0010015750     1    12    10     9
 -0.5376123111     1    12    12     1
 0.0196969436     1    12    12     3
 -0.0000000003     1    12    12     4
 -0.0047523529     1    12    12     5
 0.0000000002     1    12    12    13
 -0.0005460660     1    12    13     8
 0.0007578138     1    12    13     9
 -0.0031345217     1    13     2     1
 -0.0000000001     1    13     2     2
 -0.0000075214     1    13     2     3
 -0.0000915789     1    13     2     5
 -0.0000000023     1    13     3     1
 0.0844405046     1    13     3     2
 -0.0017267267     1    13     3     4
 -0.0000000001     1    13     3     5
 -0.0056091848     1    13     3    10
 0.1184794146     1    13     4     1
 -0.0034962397     1    13     4     3
 0.0000000001     1    13     4     4
 0.0053941296     1    13     4     5
 0.0000000001     1    13     4    10
 0.0000000044     1    13     5     1
 -0.1599835896     1    13     5     2
 -0.0000000003     1    13     5     3
 0.0172262864     1    13     5     4
 -0.0066970262     1    13     5    10
 -0.0000000002     1    13     6     6
 -0.0026924217     1    13     6     8
 0.0042640899     1    13     6     9
 -0.0000000001     1    13     6    12
 -0.0000000002     1    13     7     7
 0.0042640899     1    13     7     8
 0.0026924217     1    13     7     9
 -0.0000000001     1    13     7    11
 -0.0026904932     1    13     8     6
 0.0042610358     1    13     8     7
 -0.0000000001     1    13     8     8
 0.0064356092     1    13     8    11
 -0.0046373763     1    13     8    12
 0.0042610358     1    13     9     6
 0.0026904932     1    13     9     7
 -0.0000000001     1    13     9     9
 0.0046373763     1    13     9    11
 0.0064356092     1    13     9    12
 0.1631053127     1    13    10     1
 -0.0185963877     1    13    10     3
 0.0000000003     1    13    10     4
 -0.0023253268     1    13    10     5
 -0.0000000001     1    13    10    10
 -0.0000000001     1    13    11     7
 0.0071934230     1    13    11     8
 0.0051834423     1    13    11     9
 -0.0000000002     1    13    11    11
 -0.0000000001     1    13    12     6
 -0.0051834423     1    13    12     8
 0.0071934230     1    13    12     9
 -0.0000000002     1    13    12    12
 -0.4834615085     1    13    13     1
 0.0130635139     1    13    13     3
 -0.0000000002     1    13    13     4
 0.0058930358     1    13    13     5
 0.0000000002     1    13    13    10
 -0.2302775867     2     1     1     2
 0.0003752467     2     1     1     4
 0.0035671419     2     1     1    10
 -0.0031345217     2     1     1    13
 -0.0001915629     2     1     3     2
 0.3406160141     2     1     3     4
 -0.0512750088     2     1     3    10
 -0.0844480260     2     1     3    13
 0.3406150733     2     1     4     3
 -0.0880348399     2     1     4     5
 -0.0033572760     2     1     5     2
 -0.0880217899     2     1     5     4
 -0.3109944679     2     1     5    10
 0.1598920107     2     1     5    13
 -0.1709662830     2     1     6     8
 0.2707657583     2     1     6     9
 0.2707657583     2     1     7     8
 0.1709662830     2     1     7     9
 -0.1709931782     2     1     8     6
 0.2708083532     2     1     8     7
 0.1742443472     2     1     8    11
 -0.1255571273     2     1     8    12
 0.2708083532     2     1     9     6
 0.1709931782     2     1     9     7
 0.1255571273     2     1     9    11
 0.1742443472     2     1     9    12
 -0.0512834480     2     1    10     3
 -0.3110982902     2     1    10     5
 0.1741972588     2     1    11     8
 0.1255231962     2     1    11     9
 -0.1255231962     2     1    12     8
 0.1741972588     2     1    12     9
 0.0000000001     2     1    13     2
 -0.0844405046     2     1    13     3
 0.1599835896     2     1    13     5
 0.2302775867     2     2     1     1
 0.0001915629     2     2     1     3
 0.0033572760     2     2     1     5
 -0.0000000001     2     2     1    13
 0.0001915629     2     2     3     1
 0.5696453488     2     2     3     3
 0.0000000093     2     2     3     4
 0.0053499212     2     2     3     5
 -0.0000000014     2     2     3    10
 -0.0000000023     2     2     3    13
 0.0000000093     2     2     4     3
 0.5770973683     2     2     4     4
 -0.0000000025     2     2     4     5
 -0.0367553612     2     2     4    10
 -0.1184693821     2     2     4    13
 0.0033572760     2     2     5     1
 0.0053499212     2     2     5     3
 -0.0000000025     2     2     5     4
 0.5446706653     2     2     5     5
 -0.0000000085     2     2     5    10
 0.0000000044     2     2     5    13
 0.5361031740     2     2     6     6
 -0.0000000047     2     2     6     8
 0.0000000074     2     2     6     9
 0.0124543302     2     2     6    11
 0.2032330809     2     2     6    12
 0.5361031740     2     2     7     7
 0.0000000074     2     2     7     8
 0.0000000047     2     2     7     9
 0.2032330809     2     2     7    11
 -0.0124543302     2     2     7    12
 -0.0000000047     2     2     8     6
 0.0000000074     2     2     8     7
 0.5518967773     2     2     8     8
 0.0000000047     2     2     8    11
 -0.0000000034     2     2     8    12
 0.0000000074     2     2     9     6
 0.0000000047     2     2     9     7
 0.5518967773     2     2     9     9
 0.0000000034     2     2     9    11
 0.0000000047     2     2     9    12
 -0.0000000014     2     2    10     3
 -0.0367553612     2     2    10     4
 -0.0000000085     2     2    10     5
 0.5842360128     2     2    10    10
 -0.1630087909     2     2    10    13
 0.0124543302     2     2    11     6
 0.2032330809     2     2    11     7
 0.0000000047     2     2    11     8
 0.0000000034     2     2    11     9
 0.5376778916     2     2    11    11
 0.2032330809     2     2    12     6
 -0.0124543302     2     2    12     7
 -0.0000000034     2     2    12     8
 0.0000000047     2     2    12     9
 0.5376778916     2     2    12    12
 -0.0000000001     2     2    13     1
 -0.0000000023     2     2    13     3
 -0.1184693821     2     2    13     4
 0.0000000044     2     2    13     5
 -0.1630087909     2     2    13    10
 0.4833782896     2     2    13    13
 -0.0001915629     2     3     1     2
 0.0000009408     2     3     1     4
 0.0000084392     2     3     1    10
 -0.0000075214     2     3     1    13
 -0.5696453488     2     3     3     2
 0.0001668241     2     3     3     4
 -0.0000000001     2     3     3     5
 0.0031878551     2     3     3    10
 -0.0025753940     2     3     3    13
 -0.3406150733     2     3     4     1
 -0.0000000093     2     3     4     2
 0.0034695885     2     3     4     5
 -0.0000000001     2     3     4    10
 0.0000000001     2     3     4    13
 -0.0053499212     2     3     5     2
 0.0026376147     2     3     5     4
 -0.0000000003     2     3     5     5
 0.0199967397     2     3     5    10
 -0.0186436813     2     3     5    13
 -0.0000000003     2     3     6     6
 0.0100473997     2     3     6     8
 -0.0159124463     2     3     6     9
 -0.0000000003     2     3     6    12
 -0.0000000003     2     3     7     7
 -0.0159124463     2     3     7     8
 -0.0100473997     2     3     7     9
 -0.0000000003     2     3     7    11
 0.0095888576     2     3     8     6
 -0.0151862360     2     3     8     7
 -0.0000000003     2     3     8     8
 -0.0185252285     2     3     8    11
 0.0133489235     2     3     8    12
 -0.0151862360     2     3     9     6
 -0.0095888576     2     3     9     7
 -0.0000000003     2     3     9     9
 -0.0133489235     2     3     9    11
 -0.0185252285     2     3     9    12
 0.0512834480     2     3    10     1
 0.0000000014     2     3    10     2
 0.0179244398     2     3    10     5
 -0.0000000003     2     3    10    10
 0.0000000003     2     3    10    13
 -0.0000000002     2     3    11     7
 -0.0128473845     2     3    11     8
 -0.0092575783     2     3    11     9
 -0.0000000003     2     3    11    11
 -0.0000000002     2     3    12     6
 0.0092575783     2     3    12     8
 -0.0128473845     2     3    12     9
 -0.0000000003     2     3    12    12
 0.0844405046     2     3    13     1
 0.0000000023     2     3    13     2
 0.0000000001     2     3    13     4
 -0.0118147619     2     3    13     5
 0.0000000002     2     3    13    10
 -0.0000000002     2     3    13    13
 -0.0003752467     2     4     1     1
 -0.0000009408     2     4     1     3
 -0.0000130500     2     4     1     5
 -0.3406160141     2     4     3     1
 -0.0000000093     2     4     3     2
 -0.0001668241     2     4     3     3
 0.0008319738     2     4     3     5
 -0.0000000001     2     4     3    10
 -0.5770973683     2     4     4     2
 -0.0005572375     2     4     4    10
 0.0015715654     2     4     4    13
 0.0880217899     2     4     5     1
 0.0000000025     2     4     5     2
 -0.0026376147     2     4     5     3
 -0.0172232765     2     4     5     5
 0.0000000003     2     4     5    10
 -0.0000000003     2     4     5    13
 -0.0179106406     2     4     6     6
 0.0000000001     2     4     6     8
 -0.0000000003     2     4     6     9
 -0.0013806496     2     4     6    11
 -0.0225298084     2     4     6    12
 -0.0179106406     2     4     7     7
 -0.0000000003     2     4     7     8
 -0.0000000001     2     4     7     9
 -0.0225298084     2     4     7    11
 0.0013806496     2     4     7    12
 0.0000000001     2     4     8     6
 -0.0000000003     2     4     8     7
 -0.0200507268     2     4     8     8
 -0.0000000003     2     4     8    11
 0.0000000002     2     4     8    12
 -0.0000000003     2     4     9     6
 -0.0000000001     2     4     9     7