&FCI NORB= 19,NELEC= 14,MS2=0,
 ORBSYM=1,1,1,1,1,1,1,1,1,1,1,1,1,1,1,1,1,1,1
 ISYM=1,
&END
 0.2102507591     1     1     2     2
 -0.0002401599     1     1     2     4
 -0.0028552851     1     1     2    10
 0.0000000001     1     1     2    13
 0.0024430625     1     1     2    14
 0.0000000001     1     1     2    15
 -0.0019034561     1     1     2    18
 0.5604228312     1     1     3     3
 -0.0000000003     1     1     3     4
 -0.0029199461     1     1     3     5
 0.1141032081     1     1     3    13
 0.0000000001     1     1     3    14
 -0.1171751253     1     1     3    15
 0.0000000001     1     1     3    18
 0.0134453426     1     1     3    19
 -0.0002401599     1     1     4     2
 -0.0000000003     1     1     4     3
 0.5674105098     1     1     4     4
 -0.0000000001     1     1     4     5
 -0.0291068787     1     1     4    10
 -0.0000000001     1     1     4    13
 -0.1214850181     1     1     4    14
 0.0000000001     1     1     4    15
 -0.1063279296     1     1     4    18
 -0.0029199461     1     1     5     3
 -0.0000000001     1     1     5     4
 0.5290892845     1     1     5     5
 -0.0000000003     1     1     5    10
 -0.1298064828     1     1     5    13
 0.0000000001     1     1     5    14
 -0.1453529668     1     1     5    15
 -0.0000000001     1     1     5    18
 -0.0275554870     1     1     5    19
 0.5284632874     1     1     6     6
 -0.0000000002     1     1     6     8
 -0.0000000002     1     1     6     9
 0.2031897884     1     1     6    11
 -0.0136013559     1     1     6    12
 0.0000000002     1     1     6    16
 0.5284632874     1     1     7     7
 0.0000000002     1     1     7     8
 -0.0000000002     1     1     7     9
 0.0136013559     1     1     7    11
 0.2031897884     1     1     7    12
 -0.0000000002     1     1     7    17
 -0.0000000002     1     1     8     6
 0.0000000002     1     1     8     7
 0.5412664355     1     1     8     8
 -0.0000000001     1     1     8    11
 0.0000000001     1     1     8    12
 -0.1820440537     1     1     8    16
 -0.0978363917     1     1     8    17
 -0.0000000002     1     1     9     6
 -0.0000000002     1     1     9     7
 0.5412664355     1     1     9     9
 -0.0000000001     1     1     9    11
 -0.0000000001     1     1     9    12
 -0.0978363917     1     1     9    16
 0.1820440537     1     1     9    17
 -0.0028552851     1     1    10     2
 -0.0291068787     1     1    10     4
 -0.0000000003     1     1    10     5
 0.5677104503     1     1    10    10
 0.0000000002     1     1    10    13
 -0.1551225928     1     1    10    14
 0.0000000001     1     1    10    15
 0.1299575971     1     1    10    18
 0.2031897884     1     1    11     6
 0.0136013559     1     1    11     7
 -0.0000000001     1     1    11     8
 -0.0000000001     1     1    11     9
 0.5257371480     1     1    11    11
 0.0000000003     1     1    11    16
 -0.0000000001     1     1    11    17
 -0.0136013559     1     1    12     6
 0.2031897884     1     1    12     7
 0.0000000001     1     1    12     8
 -0.0000000001     1     1    12     9
 0.5257371480     1     1    12    12
 -0.0000000001     1     1    12    16
 -0.0000000003     1     1    12    17
 0.0000000001     1     1    13     2
 0.1141032081     1     1    13     3
 -0.0000000001     1     1    13     4
 -0.1298064828     1     1    13     5
 0.0000000002     1     1    13    10
 0.5483995081     1     1    13    13
 -0.0000000001     1     1    13    14
 0.0403955757     1     1    13    15
 0.0000000002     1     1    13    18
 0.0010286508     1     1    13    19
 0.0024430625     1     1    14     2
 0.0000000001     1     1    14     3
 -0.1214850181     1     1    14     4
 0.0000000001     1     1    14     5
 -0.1551225928     1     1    14    10
 -0.0000000001     1     1    14    13
 0.4757810801     1     1    14    14
 -0.0000000003     1     1    14    15
 -0.0235583925     1     1    14    18
 0.0000000001     1     1    15     2
 -0.1171751253     1     1    15     3
 0.0000000001     1     1    15     4
 -0.1453529668     1     1    15     5
 0.0000000001     1     1    15    10
 0.0403955757     1     1    15    13
 -0.0000000003     1     1    15    14
 0.4687655923     1     1    15    15
 -0.0001806784     1     1    15    19
 0.0000000002     1     1    16     6
 -0.1820440537     1     1    16     8
 -0.0978363917     1     1    16     9
 0.0000000003     1     1    16    11
 -0.0000000001     1     1    16    12
 0.5143569050     1     1    16    16
 -0.0000000002     1     1    17     7
 -0.0978363917     1     1    17     8
 0.1820440537     1     1    17     9
 -0.0000000001     1     1    17    11
 -0.0000000003     1     1    17    12
 0.5143569050     1     1    17    17
 -0.0019034561     1     1    18     2
 0.0000000001     1     1    18     3
 -0.1063279296     1     1    18     4
 -0.0000000001     1     1    18     5
 0.1299575971     1     1    18    10
 0.0000000002     1     1    18    13
 -0.0235583925     1     1    18    14
 0.4906102778     1     1    18    18
 0.0000000001     1     1    18    19
 0.0134453426     1     1    19     3
 -0.0275554870     1     1    19     5
 0.0010286508     1     1    19    13
 -0.0001806784     1     1    19    15
 0.0000000001     1     1    19    18
 0.4897452665     1     1    19    19
 -0.2102507591     1     2     2     1
 -0.0000970168     1     2     2     3
 0.0027641876     1     2     2     5
 -0.0024637235     1     2     2    13
 -0.0021632596     1     2     2    15
 -0.0004119064     1     2     2    19
 0.3527480202     1     2     3     4
 -0.0380136202     1     2     3    10
 -0.0959274650     1     2     3    14
 -0.1122988560     1     2     3    18
 0.0002401599     1     2     4     1
 0.3527485516     1     2     4     3
 0.0700096746     1     2     4     5
 0.1109512996     1     2     4    13
 -0.1267991152     1     2     4    15
 0.0030724111     1     2     4    19
 0.0700182355     1     2     5     4
 0.3200495612     1     2     5    10
 -0.1511977194     1     2     5    14
 0.0812109173     1     2     5    18
 0.2505165365     1     2     6     8
 0.2146123193     1     2     6     9
 -0.1839543114     1     2     6    16
 0.0402126288     1     2     6    17
 -0.2146123193     1     2     7     8
 0.2505165365     1     2     7     9
 0.0402126288     1     2     7    16
 0.1839543114     1     2     7    17
 0.2504861093     1     2     8     6
 -0.2145862531     1     2     8     7
 0.1514411722     1     2     8    11
 -0.1483829353     1     2     8    12
 0.2145862531     1     2     9     6
 0.2504861093     1     2     9     7
 0.1483829353     1     2     9    11
 0.1514411722     1     2     9    12
 0.0028552851     1     2    10     1
 -0.0380066968     1     2    10     3
 0.3199709622     1     2    10     5
 -0.2145523131     1     2    10    13
 -0.1169691792     1     2    10    15
 0.0157425353     1     2    10    19
 0.1514742705     1     2    11     8
 0.1484153652     1     2    11     9
 -0.3058301510     1     2    11    16
 0.0886236758     1     2    11    17
 -0.1484153652     1     2    12     8
 0.1514742705     1     2    12     9
 0.0886236758     1     2    12    16
 0.3058301510     1     2    12    17
 -0.0000000001     1     2    13     1
 0.1109474831     1     2    13     4
 -0.2146291649     1     2    13    10
 0.0693098863     1     2    13    14
 -0.2437068855     1     2    13    18
 -0.0024430625     1     2    14     1
 -0.0959334400     1     2    14     3
 -0.1511316026     1     2    14     5
 0.0692465374     1     2    14    13
 0.3008551974     1     2    14    15
 0.0227139459     1     2    14    19
 -0.0000000001     1     2    15     1
 -0.1268032032     1     2    15     4
 -0.1170327452     1     2    15    10
 0.3009077752     1     2    15    14
 0.0149340941     1     2    15    18
 -0.1839089400     1     2    16     6
 0.0402027105     1     2    16     7
 -0.3057778889     1     2    16    11
 0.0886085314     1     2    16    12
 0.0402027105     1     2    17     6
 0.1839089400     1     2    17     7
 0.0886085314     1     2    17    11
 0.3057778889     1     2    17    12
 0.0019034561     1     2    18     1
 -0.1122929601     1     2    18     3
 0.0811561269     1     2    18     5
 -0.2436543961     1     2    18    13
 0.0149768660     1     2    18    15
 -0.1045136839     1     2    18    19
 0.0030714002     1     2    19     4
 0.0157270610     1     2    19    10
 0.0227271147     1     2    19    14
 -0.1045240962     1     2    19    18
 0.0000970168     1     3     2     2
 -0.0000003296     1     3     2     4
 -0.0000069083     1     3     2    10
 0.0000054752     1     3     2    14
 -0.0000048526     1     3     2    18
 -0.5604228312     1     3     3     1
 0.0019431694     1     3     3     5
 -0.0024058331     1     3     3    13
 -0.0013086220     1     3     3    15
 -0.0003282979     1     3     3    19
 0.0000000003     1     3     4     1
 -0.3527485516     1     3     4     2
 -0.0002837360     1     3     4     4
 -0.0028615037     1     3     4    10
 0.0028345968     1     3     4    14
 -0.0013733008     1     3     4    18
 0.0029199461     1     3     5     1
 -0.0176366904     1     3     5     5
 0.0173429852     1     3     5    13
 0.0153664396     1     3     5    15
 0.0013146599     1     3     5    19
 -0.0182329749     1     3     6     6
 -0.0226022999     1     3     6    11
 0.0015129792     1     3     6    12
 -0.0182329749     1     3     7     7
 -0.0015129792     1     3     7    11
 -0.0226022999     1     3     7    12
 -0.0184051853     1     3     8     8
 0.0194485316     1     3     8    16
 0.0104522731     1     3     8    17
 -0.0184051853     1     3     9     9
 0.0104522731     1     3     9    16
 -0.0194485316     1     3     9    17
 0.0380066968     1     3    10     2
 -0.0019912910     1     3    10     4
 -0.0194545979     1     3    10    10
 0.0175601411     1     3    10    14
 -0.0131297615     1     3    10    18
 -0.0152792218     1     3    11     6
 -0.0010227784     1     3    11     7
 -0.0196623055     1     3    11    11
 0.0010227784     1     3    12     6
 -0.0152792218     1     3    12     7
 -0.0196623055     1     3    12    12
 -0.1141032081     1     3    13     1
 0.0116756040     1     3    13     5
 -0.0120266550     1     3    13    13
 -0.0102550402     1     3    13    15
 -0.0006839640     1     3    13    19
 -0.0000000001     1     3    14     1
 0.0959334400     1     3    14     2
 0.0012353650     1     3    14     4
 0.0123499397     1     3    14    10
 -0.0119313239     1     3    14    14
 0.0083482392     1     3    14    18
 0.1171751253     1     3    15     1
 0.0097709975     1     3    15     5
 -0.0095882308     1     3    15    13
 -0.0092628964     1     3    15    15
 -0.0006849749     1     3    15    19
 0.0135121818     1     3    16     8
 0.0072618857     1     3    16     9
 -0.0190893731     1     3    16    16
 0.0072618857     1     3    17     8
 -0.0135121818     1     3    17     9
 -0.0190893731     1     3    17    17
 -0.0000000001     1     3    18     1
 0.1122929601     1     3    18     2
 -0.0008115612     1     3    18     4
 -0.0086605815     1     3    18    10
 0.0079400866     1     3    18    14
 -0.0066253638     1     3    18    18
 -0.0134453426     1     3    19     1
 0.0009543696     1     3    19     5
 -0.0009038106     1     3    19    13
 -0.0009342826     1     3    19    15
 -0.0027877371     1     3    19    19
 0.0002401599     1     4     2     1
 0.0000003296     1     4     2     3
 -0.0000074989     1     4     2     5
 0.0000045214     1     4     2    13
 0.0000045742     1     4     2    15
 0.0000013359     1     4     2    19
 0.0000000003     1     4     3     1
 -0.3527480202     1     4     3     2
 -0.0009094395     1     4     3    10
 0.0016143409     1     4     3    14
 -0.0005690680     1     4     3    18
 -0.5674105098     1     4     4     1
 0.0002837360     1     4     4     3
 -0.0003228157     1     4     4     5
 0.0003918938     1     4     4    13
 0.0010734429     1     4     4    15
 0.0000342012     1     4     4    19
 0.0000000001     1     4     5     1
 -0.0700182355     1     4     5     2
 -0.0188085728     1     4     5    10
 0.0163434299     1     4     5    14
 -0.0135245352     1     4     5    18
 -0.0140151512     1     4     6     8
 -0.0120064892     1     4     6     9
 0.0218713013     1     4     6    16
 -0.0047810921     1     4     6    17
 0.0120064892     1     4     7     8
 -0.0140151512     1     4     7     9
 -0.0047810921     1     4     7    16
 -0.0218713013     1     4     7    17
 -0.0139248143     1     4     8     6
 0.0119290995     1     4     8     7
 -0.0166175854     1     4     8    11
 0.0162820062     1     4     8    12
 -0.0119290995     1     4     9     6
 -0.0139248143     1     4     9     7
 -0.0162820062     1     4     9    11
 -0.0166175854     1     4     9    12
 0.0291068787     1     4    10     1
 0.0019912910     1     4    10     3
 -0.0184360568     1     4    10     5
 0.0194343605     1     4    10    13
 0.0155465945     1     4    10    15
 0.0021383295     1     4    10    19
 -0.0116770460     1     4    11     8
 -0.0114412371     1     4    11     9
 0.0194442282     1     4    11    16
 -0.0056345621     1     4    11    17
 0.0114412371     1     4    12     8
 -0.0116770460     1     4    12     9
 -0.0056345621     1     4    12    16
 -0.0194442282     1     4    12    17
 0.0000000001     1     4    13     1
 -0.1109474831     1     4    13     2
 0.0137219663     1     4    13    10
 -0.0116491071     1     4    13    14
 0.0105392600     1     4    13    18
 0.1214850181     1     4    14     1
 -0.0012353650     1     4    14     3
 0.0113092069     1     4    14     5
 -0.0120201156     1     4    14    13
 -0.0096660383     1     4    14    15
 -0.0013104900     1     4    14    19
 -0.0000000001     1     4    15     1
 0.1268032032     1     4    15     2
 0.0113257951     1     4    15    10
 -0.0099884126     1     4    15    14
 0.0081973961     1     4    15    18
 0.0148668969     1     4    16     6
 -0.0032499211     1     4    16     7
 0.0187959015     1     4    16    11
 -0.0054466896     1     4    16    12
 -0.0032499211     1     4    17     6
 -0.0148668969     1     4    17     7
 -0.0054466896     1     4    17    11
 -0.0187959015     1     4    17    12
 0.1063279296     1     4    18     1
 0.0008115612     1     4    18     3
 -0.0079682249     1     4    18     5
 0.0089882876     1     4    18    13
 0.0063926438     1     4    18    15
 0.0015664353     1     4    18    19
 -0.0030714002     1     4    19     2
 0.0005811878     1     4    19    10
 -0.0002700619     1     4    19    14
 0.0008545593     1     4    19    18
 -0.0027641876     1     5     2     2
 0.0000074989     1     5     2     4
 0.0000799124     1     5     2    10
 -0.0000669149     1     5     2    14
 0.0000529844     1     5     2    18
 0.0029199461     1     5     3     1
 -0.0019431694     1     5     3     3
 0.0057827501     1     5     3    13
 0.0056858420     1     5     3    15
 0.0003549972     1     5     3    19
 0.0000000001     1     5     4     1
 -0.0700096746     1     5     4     2
 0.0003228157     1     5     4     4
 -0.0004626529     1     5     4    10
 0.0051246584     1     5     4    14
 -0.0056269033     1     5     4    18
 -0.5290892845     1     5     5     1
 0.0176366904     1     5     5     3
 0.0053690065     1     5     5    13
 -0.0072367179     1     5     5    15
 0.0081409813     1     5     5    19
 -0.0028556233     1     5     6     6
 -0.0015021427     1     5     6    11
 0.0001005522     1     5     6    12
 -0.0028556233     1     5     7     7
 -0.0001005522     1     5     7    11
 -0.0015021427     1     5     7    12
 -0.0028169815     1     5     8     8
 0.0023906741     1     5     8    16
 0.0012848260     1     5     8    17
 -0.0028169815     1     5     9     9
 0.0012848260     1     5     9    16
 -0.0023906741     1     5     9    17
 0.0000000003     1     5    10     1
 -0.3199709622     1     5    10     2
 0.0184360568     1     5    10     4
 -0.0063427330     1     5    10    10
 -0.0037750249     1     5    10    14
 -0.0120516301     1     5    10    18
 -0.0017663010     1     5    11     6
 -0.0001182347     1     5    11     7
 -0.0037536296     1     5    11    11
 0.0001182347     1     5    12     6
 -0.0017663010     1     5    12     7
 -0.0037536296     1     5    12    12
 0.1298064828     1     5    13     1
 -0.0116756040     1     5    13     3
 -0.0131283250     1     5    13    13
 0.0055201525     1     5    13    15
 -0.0042435696     1     5    13    19
 -0.0000000001     1     5    14     1
 0.1511316026     1     5    14     2
 -0.0113092069     1     5    14     4
 0.0031587073     1     5    14    10
 0.0066198818     1     5    14    14
 0.0086671786     1     5    14    18
 0.1453529668     1     5    15     1
 -0.0097709975     1     5    15     3
 -0.0068738708     1     5    15    13
 0.0066986858     1     5    15    15
 -0.0029778038     1     5    15    19
 0.0014906330     1     5    16     8
 0.0008011146     1     5    16     9
 -0.0025906675     1     5    16    16
 0.0008011146     1     5    17     8
 -0.0014906330     1     5    17     9
 -0.0025906675     1     5    17    17
 0.0000000001     1     5    18     1
 -0.0811561269     1     5    18     2
 0.0079682249     1     5    18     4
 -0.0022259655     1     5    18    10
 -0.0053996650     1     5    18    14
 -0.0079862250     1     5    18    18
 0.0275554870     1     5    19     1
 -0.0009543696     1     5    19     3
 0.0041516789     1     5    19    13
 0.0053073784     1     5    19    15
 -0.0010589006     1     5    19    19
 0.0000311342     1     6     2     8
 0.0000266720     1     6     2     9
 -0.0000454696     1     6     2    16
 0.0000099397     1     6     2    17
 -0.0075187619     1     6     3    11
 0.0005032997     1     6     3    12
 -0.0001381505     1     6     4     8
 -0.0001183506     1     6     4     9
 0.0071441762     1     6     4    16
 -0.0015617253     1     6     4    17
 0.0002550908     1     6     5    11
 -0.0000170756     1     6     5    12
 -0.5284632874     1     6     6     1
 0.0182329749     1     6     6     3
 0.0028556233     1     6     6     5
 0.0061614604     1     6     6    13
 -0.0085241970     1     6     6    15
 -0.0036352496     1     6     6    19
 0.0000000002     1     6     8     1
 -0.2504861093     1     6     8     2
 0.0139248143     1     6     8     4
 -0.0029470145     1     6     8    10
 -0.0043472726     1     6     8    14
 -0.0054346138     1     6     8    18
 0.0000000002     1     6     9     1
 -0.2145862531     1     6     9     2
 0.0119290995     1     6     9     4
 -0.0025246461     1     6     9    10
 -0.0037242182     1     6     9    14
 -0.0046557208     1     6     9    18
 -0.0000186495     1     6    10     8
 -0.0000159766     1     6    10     9
 -0.0003378566     1     6    10    16
 0.0000738558     1     6    10    17
 -0.2031897884     1     6    11     1
 0.0152792218     1     6    11     3
 0.0017663010     1     6    11     5
 0.0114617581     1     6    11    13
 -0.0111067554     1     6    11    15
 -0.0012427132     1     6    11    19
 0.0136013559     1     6    12     1
 -0.0010227784     1     6    12     3
 -0.0001182347     1     6    12     5
 -0.0007672406     1     6    12    13
 0.0007434769     1     6    12    15
 0.0000831861     1     6    12    19
 0.0014340013     1     6    13    11
 -0.0000959909     1     6    13    12
 0.0000128567     1     6    14     8
 0.0000110141     1     6    14     9
 0.0011321713     1     6    14    16
 -0.0002474940     1     6    14    17
 -0.0018207038     1     6    15    11
 0.0001218764     1     6    15    12
 -0.0000000002     1     6    16     1
 0.1839089400     1     6    16     2
 -0.0148668969     1     6    16     4
 0.0023105630     1     6    16    10
 0.0099059466     1     6    16    14
 0.0108283787     1     6    16    18
 -0.0402027105     1     6    17     2
 0.0032499211     1     6    17     4
 -0.0005050917     1     6    17    10
 -0.0021654516     1     6    17    14
 -0.0023670964     1     6    17    18
 0.0002003442     1     6    18     8
 0.0001716307     1     6    18     9
 0.0031038263     1     6    18    16
 -0.0006785001     1     6    18    17
 0.0033785235     1     6    19    11
 -0.0002261556     1     6    19    12
 -0.0000266720     1     7     2     8
 0.0000311342     1     7     2     9
 0.0000099397     1     7     2    16
 0.0000454696     1     7     2    17
 -0.0005032997     1     7     3    11
 -0.0075187619     1     7     3    12
 0.0001183506     1     7     4     8
 -0.0001381505     1     7     4     9
 -0.0015617253     1     7     4    16
 -0.0071441762     1     7     4    17
 0.0000170756     1     7     5    11
 0.0002550908     1     7     5    12
 -0.5284632874     1     7     7     1
 0.0182329749     1     7     7     3
 0.0028556233     1     7     7     5
 0.0061614604     1     7     7    13
 -0.0085241970     1     7     7    15
 -0.0036352496     1     7     7    19
 -0.0000000002     1     7     8     1
 0.2145862531     1     7     8     2
 -0.0119290995     1     7     8     4
 0.0025246461     1     7     8    10
 0.0037242182     1     7     8    14
 0.0046557208     1     7     8    18
 0.0000000002     1     7     9     1
 -0.2504861093     1     7     9     2
 0.0139248143     1     7     9     4
 -0.0029470145     1     7     9    10
 -0.0043472726     1     7     9    14
 -0.0054346138     1     7     9    18
 0.0000159766     1     7    10     8
 -0.0000186495     1     7    10     9
 0.0000738558     1     7    10    16
 0.0003378566     1     7    10    17
 -0.0136013559     1     7    11     1
 0.0010227784     1     7    11     3
 0.0001182347     1     7    11     5
 0.0007672406     1     7    11    13
 -0.0007434769     1     7    11    15
 -0.0000831861     1     7    11    19
 -0.2031897884     1     7    12     1
 0.0152792218     1     7    12     3
 0.0017663010     1     7    12     5
 0.0114617581     1     7    12    13
 -0.0111067554     1     7    12    15
 -0.0012427132     1     7    12    19
 0.0000959909     1     7    13    11
 0.0014340013     1     7    13    12
 -0.0000110141     1     7    14     8
 0.0000128567     1     7    14     9
 -0.0002474940     1     7    14    16
 -0.0011321713     1     7    14    17
 -0.0001218764     1     7    15    11
 -0.0018207038     1     7    15    12
 -0.0402027105     1     7    16     2
 0.0032499211     1     7    16     4
 -0.0005050917     1     7    16    10
 -0.0021654516     1     7    16    14
 -0.0023670964     1     7    16    18
 0.0000000002     1     7    17     1
 -0.1839089400     1     7    17     2
 0.0148668969     1     7    17     4
 -0.0023105630     1     7    17    10
 -0.0099059466     1     7    17    14
 -0.0108283787     1     7    17    18
 -0.0001716307     1     7    18     8
 0.0002003442     1     7    18     9
 -0.0006785001     1     7    18    16
 -0.0031038263     1     7    18    17
 0.0002261556     1     7    19    11
 0.0033785235     1     7    19    12
 -0.0000311342     1     8     2     6
 0.0000266720     1     8     2     7
 -0.0000337232     1     8     2    11
 0.0000330421     1     8     2    12
 0.0055971935     1     8     3    16
 0.0030081137     1     8     3    17
 0.0001381505     1     8     4     6
 -0.0001183506     1     8     4     7
 -0.0046890622     1     8     4    11
 0.0045943703     1     8     4    12
 0.0008306239     1     8     5    16
 0.0004464042     1     8     5    17
 0.0000000002     1     8     6     1
 -0.2505165365     1     8     6     2
 0.0140151512     1     8     6     4
 -0.0029750556     1     8     6    10
 -0.0043653793     1     8     6    14
 -0.0056805897     1     8     6    18
 -0.0000000002     1     8     7     1
 0.2146123193     1     8     7     2
 -0.0120064892     1     8     7     4
 0.0025486684     1     8     7    10
 0.0037397299     1     8     7    14
 0.0048664433     1     8     7    18
 -0.5412664355     1     8     8     1
 0.0184051853     1     8     8     3
 0.0028169815     1     8     8     5
 0.0075411961     1     8     8    13
 -0.0087642686     1     8     8    15
 -0.0037786951     1     8     8    19
 0.0000186495     1     8    10     6
 -0.0000159766     1     8    10     7
 0.0006545214     1     8    10    11
 -0.0006413038     1     8    10    12
 0.0000000001     1     8    11     1
 -0.1514742705     1     8    11     2
 0.0116770460     1     8    11     4
 -0.0019052386     1     8    11    10
 -0.0069363795     1     8    11    14
 -0.0081201340     1     8    11    18
 -0.0000000001     1     8    12     1
 0.1484153652     1     8    12     2
 -0.0114412371     1     8    12     4
 0.0018667638     1     8    12    10
 0.0067963046     1     8    12    14
 0.0079561541     1     8    12    18
 -0.0003446499     1     8    13    16
 -0.0001852261     1     8    13    17
 -0.0000128567     1     8    14     6
 0.0000110141     1     8    14     7
 -0.0007413546     1     8    14    11
 0.0007263835     1     8    14    12
 0.0011962249     1     8    15    16
 0.0006428901     1     8    15    17
 0.1820440537     1     8    16     1
 -0.0135121818     1     8    16     3
 -0.0014906330     1     8    16     5
 -0.0091517194     1     8    16    13
 0.0104019263     1     8    16    15
 0.0010335491     1     8    16    19
 0.0978363917     1     8    17     1
 -0.0072618857     1     8    17     3
 -0.0008011146     1     8    17     5
 -0.0049184315     1     8    17    13
 0.0055903333     1     8    17    15
 0.0005554629     1     8    17    19
 -0.0002003442     1     8    18     6
 0.0001716307     1     8    18     7
 -0.0020473170     1     8    18    11
 0.0020059731     1     8    18    12
 -0.0031150839     1     8    19    16
 -0.0016741473     1     8    19    17
 -0.0000266720     1     9     2     6
 -0.0000311342     1     9     2     7
 -0.0000330421     1     9     2    11
 -0.0000337232     1     9     2    12
 0.0030081137     1     9     3    16
 -0.0055971935     1     9     3    17
 0.0001183506     1     9     4     6
 0.0001381505     1     9     4     7
 -0.0045943703     1     9     4    11
 -0.0046890622     1     9     4    12
 0.0004464042     1     9     5    16
 -0.0008306239     1     9     5    17
 0.0000000002     1     9     6     1
 -0.2146123193     1     9     6     2
 0.0120064892     1     9     6     4
 -0.0025486684     1     9     6    10
 -0.0037397299     1     9     6    14
 -0.0048664433     1     9     6    18
 0.0000000002     1     9     7     1
 -0.2505165365     1     9     7     2
 0.0140151512     1     9     7     4
 -0.0029750556     1     9     7    10
 -0.0043653793     1     9     7    14
 -0.0056805897     1     9     7    18
 -0.5412664355     1     9     9     1
 0.0184051853     1     9     9     3
 0.0028169815     1     9     9     5
 0.0075411961     1     9     9    13
 -0.0087642686     1     9     9    15
 -0.0037786951     1     9     9    19
 0.0000159766     1     9    10     6
 0.0000186495     1     9    10     7
 0.0006413038     1     9    10    11
 0.0006545214     1     9    10    12
 0.0000000001     1     9    11     1
 -0.1484153652     1     9    11     2
 0.0114412371     1     9    11     4
 -0.0018667638     1     9    11    10
 -0.0067963046     1     9    11    14
 -0.0079561541     1     9    11    18
 0.0000000001     1     9    12     1
 -0.1514742705     1     9    12     2
 0.0116770460     1     9    12     4
 -0.0019052386     1     9    12    10
 -0.0069363795     1     9    12    14
 -0.0081201340     1     9    12    18
 -0.0001852261     1     9    13    16
 0.0003446499     1     9    13    17
 -0.0000110141     1     9    14     6
 -0.0000128567     1     9    14     7
 -0.0007263835     1     9    14    11
 -0.0007413546     1     9    14    12
 0.0006428901     1     9    15    16
 -0.0011962249     1     9    15    17
 0.0978363917     1     9    16     1
 -0.0072618857     1     9    16     3
 -0.0008011146     1     9    16     5
 -0.0049184315     1     9    16    13
 0.0055903333     1     9    16    15
 0.0005554629     1     9    16    19
 -0.1820440537     1     9    17     1
 0.0135121818     1     9    17     3
 0.0014906330     1     9    17     5
 0.0091517194     1     9    17    13
 -0.0104019263     1     9    17    15
 -0.0010335491     1     9    17    19
 -0.0001716307     1     9    18     6
 -0.0002003442     1     9    18     7
 -0.0020059731     1     9    18    11
 -0.0020473170     1     9    18    12
 -0.0016741473     1     9    19    16
 0.0031150839     1     9    19    17
 0.0028552851     1    10     2     1
 0.0000069083     1    10     2     3
 -0.0000799124     1    10     2     5
 0.0000795692     1    10     2    13
 0.0000640819     1    10     2    15
 0.0000156200     1    10     2    19
 0.0380136202     1    10     3     2
 0.0009094395     1    10     3     4
 0.0049867635     1    10     3    14
 -0.0042096133     1    10     3    18
 0.0291068787     1    10     4     1
 0.0028615037     1    10     4     3
 0.0004626529     1    10     4     5
 0.0055456226     1    10     4    13
 0.0040430692     1    10     4    15
 0.0014935208     1    10     4    19
 0.0000000003     1    10     5     1
 -0.3200495612     1    10     5     2
 0.0188085728     1    10     5     4
 -0.0069674913     1    10     5    14
 -0.0098366999     1    10     5    18
 0.0029750556     1    10     6     8
 0.0025486684     1    10     6     9
 -0.0026308703     1    10     6    16
 0.0005751114     1    10     6    17
 -0.0025486684     1    10     7     8
 0.0029750556     1    10     7     9
 0.0005751114     1    10     7    16
 0.0026308703     1    10     7    17