&FCI NORB= 13,NELEC= 14,MS2=0,
 ORBSYM=1,1,1,1,1,1,1,1,1,1,1,1,1
 ISYM=1,
&END
 0.5376285973     1     1     2     2
 0.0105787321     1     1     2     4
 0.0020048203     1     1     2    10
 0.8607978502     1     1     3     3
 0.1155963548     1     1     3     7
 -0.1000829184     1     1     3    11
 0.0105787321     1     1     4     2
 0.6453994572     1     1     4     4
 0.1324642053     1     1     4    10
 0.7088747218     1     1     5     5
 0.1161784690     1     1     5    12
 -0.1931355669     1     1     5    13
 0.7088747218     1     1     6     6
 -0.1931355669     1     1     6    12
 -0.1161784690     1     1     6    13
 0.1155963548     1     1     7     3
 0.6898271343     1     1     7     7
 -0.1480969417     1     1     7    11
 0.5941460819     1     1     8     8
 0.5941460819     1     1     9     9
 0.0020048203     1     1    10     2
 0.1324642053     1     1    10     4
 0.3788320959     1     1    10    10
 -0.1000829184     1     1    11     3
 -0.1480969417     1     1    11     7
 0.4706406277     1     1    11    11
 0.1161784690     1     1    12     5
 -0.1931355669     1     1    12     6
 0.5641536445     1     1    12    12
 -0.1931355669     1     1    13     5
 -0.1161784690     1     1    13     6
 0.5641536445     1     1    13    13
 -0.5376285973     1     2     2     1
 -0.0151086470     1     2     2     3
 -0.0213743890     1     2     2     7
 0.0131922300     1     2     2    11
 -0.1180746380     1     2     3     4
 -0.0785680812     1     2     3    10
 -0.0105787321     1     2     4     1
 -0.1186686784     1     2     4     3
 0.2339659427     1     2     4     7
 -0.0239373986     1     2     4    11
 0.1370458879     1     2     5     8
 0.1527707038     1     2     5     9
 0.1527707038     1     2     6     8
 -0.1370458879     1     2     6     9
 0.2348123192     1     2     7     4
 0.0325141101     1     2     7    10
 0.1366112835     1     2     8     5
 0.1522862323     1     2     8     6
 -0.0293872460     1     2     8    12
 -0.0956603309     1     2     8    13
 0.1522862323     1     2     9     5
 -0.1366112835     1     2     9     6
 0.0956603309     1     2     9    12
 -0.0293872460     1     2     9    13
 -0.0020048203     1     2    10     1
 -0.0786850118     1     2    10     3
 0.0323396586     1     2    10     7
 -0.0619702422     1     2    10    11
 -0.0244836878     1     2    11     4
 -0.0620833274     1     2    11    10
 -0.0295651298     1     2    12     8
 0.0962393719     1     2    12     9
 -0.0962393719     1     2    13     8
 -0.0295651298     1     2    13     9
 0.0151086470     1     3     2     2
 0.0005940404     1     3     2     4
 0.0001169306     1     3     2    10
 -0.8607978502     1     3     3     1
 -0.0261163184     1     3     3     7
 0.0161231635     1     3     3    11
 0.1186686784     1     3     4     2
 -0.0112453343     1     3     4     4
 -0.0021800661     1     3     4    10
 -0.0182449104     1     3     5     5
 -0.0107472753     1     3     5    12
 0.0178663148     1     3     5    13
 -0.0182449104     1     3     6     6
 0.0178663148     1     3     6    12
 0.0107472753     1     3     6    13
 -0.1155963548     1     3     7     1
 -0.0257415240     1     3     7     7
 0.0103216808     1     3     7    11
 -0.0125238309     1     3     8     8
 -0.0125238309     1     3     9     9
 0.0786850118     1     3    10     2
 -0.0008614104     1     3    10     4
 -0.0015381543     1     3    10    10
 0.1000829184     1     3    11     1
 0.0107784556     1     3    11     7
 -0.0056267187     1     3    11    11
 -0.0065949926     1     3    12     5
 0.0109635430     1     3    12     6
 -0.0129099712     1     3    12    12
 0.0109635430     1     3    13     5
 0.0065949926     1     3    13     6
 -0.0129099712     1     3    13    13
 -0.0105787321     1     4     2     1
 -0.0005940404     1     4     2     3
 -0.0008463765     1     4     2     7
 0.0005462892     1     4     2    11
 0.1180746380     1     4     3     2
 -0.0013186557     1     4     3    10
 -0.6453994572     1     4     4     1
 0.0112453343     1     4     4     3
 0.0015698883     1     4     4     7
 -0.0067159124     1     4     4    11
 0.0070572726     1     4     5     8
 0.0078670329     1     4     5     9
 0.0078670329     1     4     6     8
 -0.0070572726     1     4     6     9
 -0.2348123192     1     4     7     2
 -0.0013985656     1     4     7    10
 0.0098305003     1     4     8     5
 0.0109584642     1     4     8     6
 -0.0051739859     1     4     8    12
 -0.0168421769     1     4     8    13
 0.0109584642     1     4     9     5
 -0.0098305003     1     4     9     6
 0.0168421769     1     4     9    12
 -0.0051739859     1     4     9    13
 -0.1324642053     1     4    10     1
 0.0008614104     1     4    10     3
 -0.0010446082     1     4    10     7
 0.0023584880     1     4    10    11
 0.0244836878     1     4    11     2
 0.0036677363     1     4    11    10
 -0.0026622560     1     4    12     8
 0.0086660821     1     4    12     9
 -0.0086660821     1     4    13     8
 -0.0026622560     1     4    13     9
 0.0004346044     1     5     2     8
 0.0004844715     1     5     2     9
 -0.0041522827     1     5     3    12
 0.0069027718     1     5     3    13
 -0.0027732277     1     5     4     8
 -0.0030914313     1     5     4     9
 -0.7088747218     1     5     5     1
 0.0182449104     1     5     5     3
 -0.0167217007     1     5     5     7
 0.0080938551     1     5     5    11
 0.0027460391     1     5     7    12
 -0.0045650268     1     5     7    13
 -0.1366112835     1     5     8     2
 -0.0098305003     1     5     8     4
 -0.0053537480     1     5     8    10
 -0.1522862323     1     5     9     2
 -0.0109584642     1     5     9     4
 -0.0059680437     1     5     9    10
 -0.0006648272     1     5    10     8
 -0.0007411103     1     5    10     9
 -0.0025808873     1     5    11    12
 0.0042904776     1     5    11    13
 -0.1161784690     1     5    12     1
 0.0065949926     1     5    12     3
 -0.0035640120     1     5    12     7
 0.0002263919     1     5    12    11
 0.1931355669     1     5    13     1
 -0.0109635430     1     5    13     3
 0.0059248281     1     5    13     7
 -0.0003763548     1     5    13    11
 0.0004844715     1     6     2     8
 -0.0004346044     1     6     2     9
 0.0069027718     1     6     3    12
 0.0041522827     1     6     3    13
 -0.0030914313     1     6     4     8
 0.0027732277     1     6     4     9
 -0.7088747218     1     6     6     1
 0.0182449104     1     6     6     3
 -0.0167217007     1     6     6     7
 0.0080938551     1     6     6    11
 -0.0045650268     1     6     7    12
 -0.0027460391     1     6     7    13
 -0.1522862323     1     6     8     2
 -0.0109584642     1     6     8     4
 -0.0059680437     1     6     8    10
 0.1366112835     1     6     9     2
 0.0098305003     1     6     9     4
 0.0053537480     1     6     9    10
 -0.0007411103     1     6    10     8
 0.0006648272     1     6    10     9
 0.0042904776     1     6    11    12
 0.0025808873     1     6    11    13
 0.1931355669     1     6    12     1
 -0.0109635430     1     6    12     3
 0.0059248281     1     6    12     7
 -0.0003763548     1     6    12    11
 0.1161784690     1     6    13     1
 -0.0065949926     1     6    13     3
 0.0035640120     1     6    13     7
 -0.0002263919     1     6    13    11
 0.0213743890     1     7     2     2
 0.0008463765     1     7     2     4
 0.0001744515     1     7     2    10
 -0.1155963548     1     7     3     1
 0.0261163184     1     7     3     3
 -0.0004567748     1     7     3    11
 -0.2339659427     1     7     4     2
 -0.0015698883     1     7     4     4
 -0.0003539574     1     7     4    10
 0.0167217007     1     7     5     5
 0.0063100511     1     7     5    12
 -0.0104898549     1     7     5    13
 0.0167217007     1     7     6     6
 -0.0104898549     1     7     6    12
 -0.0063100511     1     7     6    13
 -0.6898271343     1     7     7     1
 0.0257415240     1     7     7     3
 -0.0094311950     1     7     7    11
 0.0086091485     1     7     8     8
 0.0086091485     1     7     9     9
 -0.0323396586     1     7    10     2
 0.0010446082     1     7    10     4
 -0.0013564777     1     7    10    10
 0.1480969417     1     7    11     1
 -0.0107784556     1     7    11     3
 0.0029778269     1     7    11    11
 0.0035640120     1     7    12     5
 -0.0059248281     1     7    12     6
 0.0077542657     1     7    12    12
 -0.0059248281     1     7    13     5
 -0.0035640120     1     7    13     6
 0.0077542657     1     7    13    13
 -0.0004346044     1     8     2     5
 -0.0004844715     1     8     2     6
 0.0001778838     1     8     2    12
 0.0005790410     1     8     2    13
 0.0027732277     1     8     4     5
 0.0030914313     1     8     4     6
 -0.0025117299     1     8     4    12
 -0.0081760948     1     8     4    13
 -0.1370458879     1     8     5     2
 -0.0070572726     1     8     5     4
 -0.0046889208     1     8     5    10
 -0.1527707038     1     8     6     2
 -0.0078670329     1     8     6     4
 -0.0052269334     1     8     6    10
 -0.5941460819     1     8     8     1
 0.0125238309     1     8     8     3
 -0.0086091485     1     8     8     7
 0.0008589831     1     8     8    11
 0.0006648272     1     8    10     5
 0.0007411103     1     8    10     6
 -0.0007154685     1     8    10    12
 -0.0023289681     1     8    10    13
 0.0295651298     1     8    12     2
 0.0026622560     1     8    12     4
 0.0018169139     1     8    12    10
 0.0962393719     1     8    13     2
 0.0086660821     1     8    13     4
 0.0059143541     1     8    13    10
 -0.0004844715     1     9     2     5
 0.0004346044     1     9     2     6
 -0.0005790410     1     9     2    12
 0.0001778838     1     9     2    13
 0.0030914313     1     9     4     5
 -0.0027732277     1     9     4     6
 0.0081760948     1     9     4    12
 -0.0025117299     1     9     4    13
 -0.1527707038     1     9     5     2
 -0.0078670329     1     9     5     4
 -0.0052269334     1     9     5    10
 0.1370458879     1     9     6     2
 0.0070572726     1     9     6     4
 0.0046889208     1     9     6    10
 -0.5941460819     1     9     9     1
 0.0125238309     1     9     9     3
 -0.0086091485     1     9     9     7
 0.0008589831     1     9     9    11
 0.0007411103     1     9    10     5
 -0.0006648272     1     9    10     6
 0.0023289681     1     9    10    12
 -0.0007154685     1     9    10    13
 -0.0962393719     1     9    12     2
 -0.0086660821     1     9    12     4
 -0.0059143541     1     9    12    10
 0.0295651298     1     9    13     2
 0.0026622560     1     9    13     4
 0.0018169139     1     9    13    10
 -0.0020048203     1    10     2     1
 -0.0001169306     1    10     2     3
 -0.0001744515     1    10     2     7
 0.0001130852     1    10     2    11
 0.0785680812     1    10     3     2
 0.0013186557     1    10     3     4
 -0.1324642053     1    10     4     1
 0.0021800661     1    10     4     3
 0.0003539574     1    10     4     7
 -0.0013092483     1    10     4    11
 0.0046889208     1    10     5     8
 0.0052269334     1    10     5     9
 0.0052269334     1    10     6     8
 -0.0046889208     1    10     6     9
 -0.0325141101     1    10     7     2
 0.0013985656     1    10     7     4
 0.0053537480     1    10     8     5
 0.0059680437     1    10     8     6
 -0.0025323824     1    10     8    12
 -0.0082433222     1    10     8    13
 0.0059680437     1    10     9     5
 -0.0053537480     1    10     9     6
 0.0082433222     1    10     9    12
 -0.0025323824     1    10     9    13
 -0.3788320959     1    10    10     1
 0.0015381543     1    10    10     3
 0.0013564777     1    10    10     7
 -0.0006104138     1    10    10    11
 0.0620833274     1    10    11     2
 -0.0036677363     1    10    11     4
 -0.0018169139     1    10    12     8
 0.0059143541     1    10    12     9
 -0.0059143541     1    10    13     8
 -0.0018169139     1    10    13     9
 -0.0131922300     1    11     2     2
 -0.0005462892     1    11     2     4
 -0.0001130852     1    11     2    10
 0.1000829184     1    11     3     1
 -0.0161231635     1    11     3     3
 0.0004567748     1    11     3     7
 0.0239373986     1    11     4     2
 0.0067159124     1    11     4     4
 0.0013092483     1    11     4    10
 -0.0080938551     1    11     5     5
 -0.0028072792     1    11     5    12
 0.0046668324     1    11     5    13
 -0.0080938551     1    11     6     6
 0.0046668324     1    11     6    12
 0.0028072792     1    11     6    13
 0.1480969417     1    11     7     1
 -0.0103216808     1    11     7     3
 0.0094311950     1    11     7     7
 -0.0008589831     1    11     8     8
 -0.0008589831     1    11     9     9
 0.0619702422     1    11    10     2
 -0.0023584880     1    11    10     4
 0.0006104138     1    11    10    10
 -0.4706406277     1    11    11     1
 0.0056267187     1    11    11     3
 -0.0029778269     1    11    11     7
 -0.0002263919     1    11    12     5
 0.0003763548     1    11    12     6
 -0.0007292559     1    11    12    12
 0.0003763548     1    11    13     5
 0.0002263919     1    11    13     6
 -0.0007292559     1    11    13    13
 -0.0001778838     1    12     2     8
 0.0005790410     1    12     2     9
 0.0041522827     1    12     3     5
 -0.0069027718     1    12     3     6
 0.0025117299     1    12     4     8
 -0.0081760948     1    12     4     9
 -0.1161784690     1    12     5     1
 0.0107472753     1    12     5     3
 -0.0063100511     1    12     5     7
 0.0028072792     1    12     5    11
 0.1931355669     1    12     6     1
 -0.0178663148     1    12     6     3
 0.0104898549     1    12     6     7
 -0.0046668324     1    12     6    11
 -0.0027460391     1    12     7     5
 0.0045650268     1    12     7     6
 0.0293872460     1    12     8     2
 0.0051739859     1    12     8     4
 0.0025323824     1    12     8    10
 -0.0956603309     1    12     9     2
 -0.0168421769     1    12     9     4
 -0.0082433222     1    12     9    10
 0.0007154685     1    12    10     8
 -0.0023289681     1    12    10     9
 0.0025808873     1    12    11     5
 -0.0042904776     1    12    11     6
 -0.5641536445     1    12    12     1
 0.0129099712     1    12    12     3
 -0.0077542657     1    12    12     7
 0.0007292559     1    12    12    11
 -0.0005790410     1    13     2     8
 -0.0001778838     1    13     2     9
 -0.0069027718     1    13     3     5
 -0.0041522827     1    13     3     6
 0.0081760948     1    13     4     8
 0.0025117299     1    13     4     9
 0.1931355669     1    13     5     1
 -0.0178663148     1    13     5     3
 0.0104898549     1    13     5     7
 -0.0046668324     1    13     5    11
 0.1161784690     1    13     6     1
 -0.0107472753     1    13     6     3
 0.0063100511     1    13     6     7
 -0.0028072792     1    13     6    11
 0.0045650268     1    13     7     5
 0.0027460391     1    13     7     6
 0.0956603309     1    13     8     2
 0.0168421769     1    13     8     4
 0.0082433222     1    13     8    10
 0.0293872460     1    13     9     2
 0.0051739859     1    13     9     4
 0.0025323824     1    13     9    10
 0.0023289681     1    13    10     8
 0.0007154685     1    13    10     9
 -0.0042904776     1    13    11     5
 -0.0025808873     1    13    11     6
 -0.5641536445     1    13    13     1
 0.0129099712     1    13    13     3
 -0.0077542657     1    13    13     7
 0.0007292559     1    13    13    11
 -0.5376285973     2     1     1     2
 -0.0105787321     2     1     1     4
 -0.0020048203     2     1     1    10
 -0.0151086470     2     1     3     2
 -0.1186686784     2     1     3     4
 -0.0786850118     2     1     3    10
 -0.1180746380     2     1     4     3
 0.2348123192     2     1     4     7
 -0.0244836878     2     1     4    11
 0.1366112835     2     1     5     8
 0.1522862323     2     1     5     9
 0.1522862323     2     1     6     8
 -0.1366112835     2     1     6     9
 -0.0213743890     2     1     7     2
 0.2339659427     2     1     7     4
 0.0323396586     2     1     7    10
 0.1370458879     2     1     8     5
 0.1527707038     2     1     8     6
 -0.0295651298     2     1     8    12
 -0.0962393719     2     1     8    13
 0.1527707038     2     1     9     5
 -0.1370458879     2     1     9     6
 0.0962393719     2     1     9    12
 -0.0295651298     2     1     9    13
 -0.0785680812     2     1    10     3
 0.0325141101     2     1    10     7
 -0.0620833274     2     1    10    11
 0.0131922300     2     1    11     2
 -0.0239373986     2     1    11     4
 -0.0619702422     2     1    11    10
 -0.0293872460     2     1    12     8
 0.0956603309     2     1    12     9
 -0.0956603309     2     1    13     8
 -0.0293872460     2     1    13     9
 0.5376285973     2     2     1     1
 0.0151086470     2     2     1     3
 0.0213743890     2     2     1     7
 -0.0131922300     2     2     1    11
 0.0151086470     2     2     3     1
 0.8612516844     2     2     3     3
 0.1166093055     2     2     3     7
 -0.1007374208     2     2     3    11
 0.6451015482     2     2     4     4
 0.1323990565     2     2     4    10
 0.7097727324     2     2     5     5
 0.1166341571     2     2     5    12
 -0.1938931047     2     2     5    13
 0.7097727324     2     2     6     6
 -0.1938931047     2     2     6    12
 -0.1166341571     2     2     6    13
 0.0213743890     2     2     7     1
 0.1166093055     2     2     7     3
 0.6916018467     2     2     7     7
 -0.1491672822     2     2     7    11
 0.5937510786     2     2     8     8
 0.5937510786     2     2     9     9
 0.1323990565     2     2    10     4
 0.3788355118     2     2    10    10
 -0.0131922300     2     2    11     1
 -0.1007374208     2     2    11     3
 -0.1491672822     2     2    11     7
 0.4713146858     2     2    11    11
 0.1166341571     2     2    12     5
 -0.1938931047     2     2    12     6
 0.5649860621     2     2    12    12
 -0.1938931047     2     2    13     5
 -0.1166341571     2     2    13     6
 0.5649860621     2     2    13    13
 -0.0151086470     2     3     1     2
 -0.0005940404     2     3     1     4
 -0.0001169306     2     3     1    10
 -0.8612516844     2     3     3     2
 -0.0166452921     2     3     3     4
 -0.0030264192     2     3     3    10
 0.1180746380     2     3     4     1
 -0.0206159724     2     3     4     7
 0.0054132280     2     3     4    11
 -0.0173648777     2     3     5     8
 -0.0193573454     2     3     5     9
 -0.0193573454     2     3     6     8
 0.0173648777     2     3     6     9
 -0.1166093055     2     3     7     2
 -0.0271677534     2     3     7     4
 -0.0059032094     2     3     7    10
 -0.0129230451     2     3     8     5
 -0.0144058514     2     3     8     6
 0.0044458593     2     3     8    12
 0.0144720048     2     3     8    13
 -0.0144058514     2     3     9     5
 0.0129230451     2     3     9     6
 -0.0144720048     2     3     9    12
 0.0044458593     2     3     9    13
 0.0785680812     2     3    10     1
 -0.0028906176     2     3    10     7
 0.0044878809     2     3    10    11
 0.1007374208     2     3    11     2
 0.0099166715     2     3    11     4
 0.0064393318     2     3    11    10
 0.0043142712     2     3    12     8
 -0.0140436640     2     3    12     9
 0.0140436640     2     3    13     8
 0.0043142712     2     3    13     9
 0.0105787321     2     4     1     1
 0.0005940404     2     4     1     3
 0.0008463765     2     4     1     7
 -0.0005462892     2     4     1    11
 0.1186686784     2     4     3     1
 0.0166452921     2     4     3     3
 0.0065517810     2     4     3     7
 -0.0045034435     2     4     3    11
 -0.6451015482     2     4     4     2
 0.0000579359     2     4     4    10
 0.0203631615     2     4     5     5
 0.0094157408     2     4     5    12
 -0.0156527663     2     4     5    13
 0.0203631615     2     4     6     6
 -0.0156527663     2     4     6    12
 -0.0094157408     2     4     6    13
 -0.2339659427     2     4     7     1
 0.0271677534     2     4     7     3
 0.0215689554     2     4     7     7
 -0.0181739917     2     4     7    11
 0.0166594697     2     4     8     8
 0.0166594697     2     4     9     9
 -0.1323990565     2     4    10     2
 -0.0006181568     2     4    10    10
 0.0239373986     2     4    11     1
 -0.0099166715     2     4    11     3
 -0.0071880537     2     4    11     7
 0.0063349916     2     4    11    11
 0.0068300369     2     4    12     5
 -0.0113542815     2     4    12     6
 0.0140564560     2     4    12    12
 -0.0113542815     2     4    13     5
 -0.0068300369     2     4    13     6
 0.0140564560     2     4    13    13
 -0.0004346044     2     5     1     8
 -0.0004844715     2     5     1     9
 -0.0044418326     2     5     3     8
 -0.0049514940     2     5     3     9
 0.0025857039     2     5     4    12
 -0.0042984848     2     5     4    13
 -0.7097727324     2     5     5     2
 -0.0203631615     2     5     5     4
 -0.0091841027     2     5     5    10
 -0.0012829175     2     5     7     8
 -0.0014301210     2     5     7     9
 -0.1370458879     2     5     8     1
 0.0129230451     2     5     8     3
 -0.0009306147     2     5     8     7
 -0.0024836470     2     5     8    11
 -0.1527707038     2     5     9     1
 0.0144058514     2     5     9     3
 -0.0010373946     2     5     9     7
 -0.0027686237     2     5     9    11
 0.0008684334     2     5    10    12
 -0.0014436873     2     5    10    13
 -0.0009479693     2     5    11     8
 -0.0010567405     2     5    11     9
 -0.1166341571     2     5    12     2
 -0.0068300369     2     5    12     4
 -0.0038365557     2     5    12    10
 0.1938931047     2     5    13     2
 0.0113542815     2     5    13     4
 0.0063779061     2     5    13    10
 -0.0004844715     2     6     1     8
 0.0004346044     2     6     1     9
 -0.0049514940     2     6     3     8
 0.0044418326     2     6     3     9
 -0.0042984848     2     6     4    12
 -0.0025857039     2     6     4    13
 -0.7097727324     2     6     6     2
 -0.0203631615     2     6     6     4
 -0.0091841027     2     6     6    10
 -0.0014301210     2     6     7     8
 0.0012829175     2     6     7     9
 -0.1527707038     2     6     8     1
 0.0144058514     2     6     8     3
 -0.0010373946     2     6     8     7
 -0.0027686237     2     6     8    11
 0.1370458879     2     6     9     1
 -0.0129230451     2     6     9     3
 0.0009306147     2     6     9     7
 0.0024836470     2     6     9    11
 -0.0014436873     2     6    10    12
 -0.0008684334     2     6    10    13
 -0.0010567405     2     6    11     8
 0.0009479693     2     6    11     9
 0.1938931047     2     6    12     2
 0.0113542815     2     6    12     4
 0.0063779061     2     6    12    10
 0.1166341571     2     6    13     2
 0.0068300369     2     6    13     4
 0.0038365557     2     6    13    10
 -0.0213743890     2     7     1     2
 -0.0008463765     2     7     1     4
 -0.0001744515     2     7     1    10
 -0.1166093055     2     7     3     2
 -0.0065517810     2     7     3     4
 -0.0030125918     2     7     3    10
 -0.2348123192     2     7     4     1
 0.0206159724     2     7     4     3
 -0.0109859380     2     7     4    11
 -0.0003523028     2     7     5     8
 -0.0003927264     2     7     5     9
 -0.0003927264     2     7     6     8
 0.0003523028     2     7     6     9
 -0.6916018467     2     7     7     2
 -0.0215689554     2     7     7     4
 -0.0061677693     2     7     7    10
 0.0009306147     2     7     8     5
 0.0010373946     2     7     8     6
 -0.0022025315     2     7     8    12
 -0.0071696031     2     7     8    13
 0.0010373946     2     7     9     5
 -0.0009306147     2     7     9     6
 0.0071696031     2     7     9    12
 -0.0022025315     2     7     9    13
 -0.0325141101     2     7    10     1
 0.0028906176     2     7    10     3
 0.0037287411     2     7    10    11
 0.1491672822     2     7    11     2
 0.0071880537     2     7    11     4
 0.0084967108     2     7    11    10
 -0.0002389933     2     7    12     8
 0.0007779627     2     7    12     9
 -0.0007779627     2     7    13     8
 -0.0002389933     2     7    13     9
 0.0004346044     2     8     1     5
 0.0004844715     2     8     1     6
 -0.0001778838     2     8     1    12
 -0.0005790410     2     8     1    13
 0.0044418326     2     8     3     5
 0.0049514940     2     8     3     6
 0.0001315881     2     8     3    12
 0.0004283408     2     8     3    13
 -0.1366112835     2     8     5     1
 0.0173648777     2     8     5     3
 0.0003523028     2     8     5     7
 -0.0015356777     2     8     5    11
 -0.1522862323     2     8     6     1
 0.0193573454     2     8     6     3
 0.0003927264     2     8     6     7
 -0.0017118832     2     8     6    11
 0.0012829175     2     8     7     5
 0.0014301210     2     8     7     6
 -0.0019635382     2     8     7    12
 -0.0063916404     2     8     7    13
 -0.5937510786     2     8     8     2
 -0.0166594697     2     8     8     4
 -0.0077097771     2     8     8    10
 0.0009479693     2     8    11     5
 0.0010567405     2     8    11     6
 0.0008491212     2     8    11    12
 0.0027640293     2     8    11    13
 0.0293872460     2     8    12     1
 -0.0043142712     2     8    12     3
 0.0002389933     2     8    12     7
 0.0008524513     2     8    12    11
 0.0956603309     2     8    13     1
 -0.0140436640     2     8    13     3
 0.0007779627     2     8    13     7
 0.0027748694     2     8    13    11
 0.0004844715     2     9     1     5
 -0.0004346044     2     9     1     6
 0.0005790410     2     9     1    12
 -0.0001778838     2     9     1    13
 0.0049514940     2     9     3     5
 -0.0044418326     2     9     3     6
 -0.0004283408     2     9     3    12
 0.0001315881     2     9     3    13
 -0.1522862323     2     9     5     1
 0.0193573454     2     9     5     3
 0.0003927264     2     9     5     7
 -0.0017118832     2     9     5    11
 0.1366112835     2     9     6     1
 -0.0173648777     2     9     6     3
 -0.0003523028     2     9     6     7
 0.0015356777     2     9     6    11
 0.0014301210     2     9     7     5
 -0.0012829175     2     9     7     6
 0.0063916404     2     9     7    12
 -0.0019635382     2     9     7    13
 -0.5937510786     2     9     9     2
 -0.0166594697     2     9     9     4
 -0.0077097771     2     9     9    10
 0.0010567405     2     9    11     5
 -0.0009479693     2     9    11     6
 -0.0027640293     2     9    11    12
 0.0008491212     2     9    11    13
 -0.0956603309     2     9    12     1
 0.0140436640     2     9    12     3
 -0.0007779627     2     9    12     7
 -0.0027748694     2     9    12    11
 0.0293872460     2     9    13     1
 -0.0043142712     2     9    13     3
 0.0002389933     2     9    13     7
 0.0008524513     2     9    13    11
 0.0020048203     2    10     1     1
 0.0001169306     2    10     1     3
 0.0001744515     2    10     1     7
 -0.0001130852     2    10     1    11
 0.0786850118     2    10     3     1
 0.0030264192     2    10     3     3
 0.0030125918     2    10     3     7
 -0.0019514509     2    10     3    11
 -0.1323990565     2    10     4     2
 -0.0000579359     2    10     4     4
 0.0091841027     2    10     5     5
 0.0047049891     2    10     5    12
 -0.0078215934     2    10     5    13
 0.0091841027     2    10     6     6
 -0.0078215934     2    10     6    12
 -0.0047049891     2    10     6    13
 -0.0323396586     2    10     7     1
 0.0059032094     2    10     7     3
 0.0061677693     2    10     7     7
 -0.0047679697     2    10     7    11
 0.0077097771     2    10     8     8
 0.0077097771     2    10     9     9
 -0.3788355118     2    10    10     2
 0.0006181568     2    10    10     4
 0.0619702422     2    10    11     1
 -0.0064393318     2    10    11     3
 -0.0084967108     2    10    11     7
 0.0055125886     2    10    11    11
 0.0038365557     2    10    12     5
 -0.0063779061     2    10    12     6
 0.0077326333     2    10    12    12
 -0.0063779061     2    10    13     5
 -0.0038365557     2    10    13     6
 0.0077326333     2    10    13    13
 0.0131922300     2    11     1     2
 0.0005462892     2    11     1     4
 0.0001130852     2    11     1    10
 0.1007374208     2    11     3     2
 0.0045034435     2    11     3     4
 0.0019514509     2    11     3    10
 0.0244836878     2    11     4     1
 -0.0054132280     2    11     4     3
 0.0109859380     2    11     4     7
 0.0015356777     2    11     5     8
 0.0017118832     2    11     5     9
 0.0017118832     2    11     6     8
 -0.0015356777     2    11     6     9
 0.1491672822     2    11     7     2
 0.0181739917     2    11     7     4
 0.0047679697     2    11     7    10
 0.0024836470     2    11     8     5
 0.0027686237     2    11     8     6
 -0.0000033301     2    11     8    12
 -0.0000108401     2    11     8    13
 0.0027686237     2    11     9     5
 -0.0024836470     2    11     9     6
 0.0000108401     2    11     9    12
 -0.0000033301     2    11     9    13
 0.0620833274     2    11    10     1
 -0.0044878809     2    11    10     3
 -0.0037287411     2    11    10     7
 -0.4713146858     2    11    11     2
 -0.0063349916     2    11    11     4
 -0.0055125886     2    11    11    10
 -0.0008524513     2    11    12     8
 0.0027748694     2    11    12     9
 -0.0027748694     2    11    13     8
 -0.0008524513     2    11    13     9
 0.0001778838     2    12     1     8
 -0.0005790410     2    12     1     9
 -0.0001315881     2    12     3     8
 0.0004283408     2    12     3     9
 -0.0025857039     2    12     4     5