&FCI NORB= 13,NELEC= 14,MS2=0,
 ORBSYM=1,1,1,1,1,1,1,1,1,1,1,1,1
 ISYM=1,
&END
 0.2302787231     1     1     2     2
 -0.0004295312     1     1     2     4
 0.0035224354     1     1     2    10
 -0.0033666911     1     1     2    13
 0.5673316782     1     1     3     3
 -0.0000000080     1     1     3     4
 -0.0118921550     1     1     3     5
 -0.0000000011     1     1     3    10
 -0.0000000017     1     1     3    13
 -0.0004295312     1     1     4     2
 -0.0000000080     1     1     4     3
 0.5767752939     1     1     4     4
 -0.0000000020     1     1     4     5
 0.0330829280     1     1     4    10
 0.1127165689     1     1     4    13
 -0.0118921550     1     1     5     3
 -0.0000000020     1     1     5     4
 0.5678861495     1     1     5     5
 0.0000000073     1     1     5    10
 -0.0000000036     1     1     5    13
 0.5356882685     1     1     6     6
 0.0000000065     1     1     6     8
 -0.0000000029     1     1     6     9
 0.1046477088     1     1     6    11
 -0.1593620068     1     1     6    12
 0.5356882685     1     1     7     7
 -0.0000000029     1     1     7     8
 -0.0000000065     1     1     7     9
 0.1593620068     1     1     7    11
 0.1046477088     1     1     7    12
 0.0000000065     1     1     8     6
 -0.0000000029     1     1     8     7
 0.5519733737     1     1     8     8
 0.0000000008     1     1     8    11
 -0.0000000049     1     1     8    12
 -0.0000000029     1     1     9     6
 -0.0000000065     1     1     9     7
 0.5519733737     1     1     9     9
 -0.0000000049     1     1     9    11
 -0.0000000008     1     1     9    12
 0.0035224354     1     1    10     2
 -0.0000000011     1     1    10     3
 0.0330829280     1     1    10     4
 0.0000000073     1     1    10     5
 0.5843904970     1     1    10    10
 -0.1631303157     1     1    10    13
 0.1046477088     1     1    11     6
 0.1593620068     1     1    11     7
 0.0000000008     1     1    11     8
 -0.0000000049     1     1    11     9
 0.5376619010     1     1    11    11
 -0.1593620068     1     1    12     6
 0.1046477088     1     1    12     7
 -0.0000000049     1     1    12     8
 -0.0000000008     1     1    12     9
 0.5376619010     1     1    12    12
 -0.0033666911     1     1    13     2
 -0.0000000017     1     1    13     3
 0.1127165689     1     1    13     4
 -0.0000000036     1     1    13     5
 -0.1631303157     1     1    13    10
 0.4835088307     1     1    13    13
 -0.2302787231     1     2     2     1
 -0.0002619077     1     2     2     3
 0.0035789259     1     2     2     5
 -0.0000000001     1     2     2    13
 0.3391473267     1     2     3     4
 0.0466972074     1     2     3    10
 0.0745844164     1     2     3    13
 0.0004295312     1     2     4     1
 0.3391528733     1     2     4     3
 0.0837227790     1     2     4     5
 0.0837320213     1     2     5     4
 -0.3115272566     1     2     5    10
 0.1578453187     1     2     5    13
 -0.2789464995     1     2     6     8
 0.1223538539     1     2     6     9
 0.1223538540     1     2     7     8
 0.2789464995     1     2     7     9
 -0.2789142680     1     2     8     6
 0.1223397163     1     2     8     7
 -0.0358444441     1     2     8    11
 0.2117464227     1     2     8    12
 0.1223397162     1     2     9     6
 0.2789142680     1     2     9     7
 0.2117464227     1     2     9    11
 0.0358444441     1     2     9    12
 -0.0035224354     1     2    10     1
 0.0466898730     1     2    10     3
 -0.3114227356     1     2    10     5
 -0.0358525928     1     2    11     8
 0.2117945607     1     2    11     9
 0.2117945607     1     2    12     8
 0.0358525928     1     2    12     9
 0.0033666911     1     2    13     1
 0.0745717672     1     2    13     3
 0.1577453153     1     2    13     5
 0.0002619077     1     3     2     2
 -0.0000004386     1     3     2     4
 0.0000077370     1     3     2    10
 0.0000080123     1     3     2    13
 -0.5673316782     1     3     3     1
 0.0029338389     1     3     3     5
 -0.0000000001     1     3     3    13
 0.0000000080     1     3     4     1
 -0.3391528733     1     3     4     2
 -0.0004625288     1     3     4     4
 0.0036822410     1     3     4    10
 -0.0033930934     1     3     4    13
 0.0118921550     1     3     5     1
 -0.0203436754     1     3     5     5
 -0.0000000003     1     3     5    10
 0.0000000003     1     3     5    13
 -0.0176775575     1     3     6     6
 -0.0000000002     1     3     6     8
 0.0000000001     1     3     6     9
 -0.0121606430     1     3     6    11
 0.0185187473     1     3     6    12
 -0.0176775575     1     3     7     7
 0.0000000001     1     3     7     8
 0.0000000002     1     3     7     9
 -0.0185187473     1     3     7    11
 -0.0121606430     1     3     7    12
 -0.0000000001     1     3     8     6
 0.0000000001     1     3     8     7
 -0.0182278420     1     3     8     8
 0.0000000003     1     3     8    12
 0.0000000001     1     3     9     6
 0.0000000001     1     3     9     7
 -0.0182278420     1     3     9     9
 0.0000000003     1     3     9    11
 0.0000000011     1     3    10     1
 -0.0466898730     1     3    10     2
 0.0025861866     1     3    10     4
 -0.0000000003     1     3    10     5
 -0.0192170408     1     3    10    10
 0.0180000086     1     3    10    13
 -0.0077096487     1     3    11     6
 -0.0117405828     1     3    11     7
 0.0000000002     1     3    11     9
 -0.0194107052     1     3    11    11
 0.0117405828     1     3    12     6
 -0.0077096487     1     3    12     7
 0.0000000002     1     3    12     8
 -0.0194107052     1     3    12    12
 0.0000000017     1     3    13     1
 -0.0745717672     1     3    13     2
 -0.0019700034     1     3    13     4
 0.0000000002     1     3    13     5
 0.0127109748     1     3    13    10
 -0.0130340098     1     3    13    13
 0.0004295312     1     4     2     1
 0.0000004386     1     4     2     3
 -0.0000112488     1     4     2     5
 0.0000000080     1     4     3     1
 -0.3391473267     1     4     3     2
 0.0010804293     1     4     3    10
 -0.0014313608     1     4     3    13
 -0.5767752939     1     4     4     1
 0.0004625288     1     4     4     3
 -0.0006873045     1     4     4     5
 0.0000000020     1     4     5     1
 -0.0837320213     1     4     5     2
 0.0000000003     1     4     5     5
 0.0198619085     1     4     5    10
 -0.0177046388     1     4     5    13
 0.0000000003     1     4     6     6
 0.0164234075     1     4     6     8
 -0.0072037728     1     4     6     9
 0.0000000001     1     4     6    11
 -0.0000000003     1     4     6    12
 0.0000000003     1     4     7     7
 -0.0072037728     1     4     7     8
 -0.0164234075     1     4     7     9
 0.0000000003     1     4     7    11
 0.0000000001     1     4     7    12
 0.0158938447     1     4     8     6
 -0.0069714915     1     4     8     7
 0.0000000003     1     4     8     8
 0.0038827211     1     4     8    11
 -0.0229366737     1     4     8    12
 -0.0069714915     1     4     9     6
 -0.0158938447     1     4     9     7
 0.0000000003     1     4     9     9
 -0.0229366737     1     4     9    11
 -0.0038827211     1     4     9    12
 -0.0330829280     1     4    10     1
 -0.0025861866     1     4    10     3
 0.0189458504     1     4    10     5
 0.0000000003     1     4    10    10
 -0.0000000003     1     4    10    13
 0.0000000001     1     4    11     6
 0.0000000002     1     4    11     7
 0.0027612865     1     4    11     8
 -0.0163119431     1     4    11     9
 0.0000000002     1     4    11    11
 -0.0000000002     1     4    12     6
 0.0000000001     1     4    12     7
 -0.0163119431     1     4    12     8
 -0.0027612865     1     4    12     9
 0.0000000002     1     4    12    12
 -0.1127165689     1     4    13     1
 0.0019700034     1     4    13     3
 -0.0118542367     1     4    13     5
 -0.0000000002     1     4    13    10
 0.0000000002     1     4    13    13
 -0.0035789259     1     5     2     2
 0.0000112488     1     5     2     4
 -0.0001055357     1     5     2    10
 0.0000935561     1     5     2    13
 0.0118921550     1     5     3     1
 -0.0029338389     1     5     3     3
 0.0000000001     1     5     3    13
 0.0000000020     1     5     4     1
 -0.0837227790     1     5     4     2
 0.0006873045     1     5     4     4
 0.0006864236     1     5     4    10
 -0.0054291513     1     5     4    13
 -0.5678861495     1     5     5     1
 0.0203436754     1     5     5     3
 -0.0000000003     1     5     5     4
 -0.0033393597     1     5     6     6
 -0.0008324070     1     5     6    11
 0.0012676250     1     5     6    12
 -0.0033393597     1     5     7     7
 -0.0012676250     1     5     7    11
 -0.0008324070     1     5     7    12
 -0.0031453365     1     5     8     8
 -0.0031453365     1     5     9     9
 -0.0000000073     1     5    10     1
 0.3114227356     1     5    10     2
 0.0000000003     1     5    10     3
 -0.0189458504     1     5    10     4
 -0.0080838351     1     5    10    10
 -0.0028088210     1     5    10    13
 -0.0008784733     1     5    11     6
 -0.0013377767     1     5    11     7
 -0.0040840760     1     5    11    11
 0.0013377767     1     5    12     6
 -0.0008784733     1     5    12     7
 -0.0040840760     1     5    12    12
 0.0000000036     1     5    13     1
 -0.1577453153     1     5    13     2
 -0.0000000002     1     5    13     3
 0.0118542367     1     5    13     4
 0.0042228446     1     5    13    10
 0.0065913498     1     5    13    13
 -0.0000412506     1     6     2     8
 0.0000180937     1     6     2     9
 -0.0000000001     1     6     3     8
 -0.0042394108     1     6     3    11
 0.0064559561     1     6     3    12
 0.0003067828     1     6     4     8
 -0.0001345636     1     6     4     9
 -0.0000000001     1     6     4    12
 0.0001610409     1     6     5    11
 -0.0002452399     1     6     5    12
 -0.5356882685     1     6     6     1
 0.0176775575     1     6     6     3
 -0.0000000003     1     6     6     4
 0.0033393597     1     6     6     5
 -0.0000000065     1     6     8     1
 0.2789142680     1     6     8     2
 0.0000000001     1     6     8     3
 -0.0158938447     1     6     8     4
 -0.0044308021     1     6     8    10
 -0.0042834722     1     6     8    13
 0.0000000029     1     6     9     1
 -0.1223397162     1     6     9     2
 -0.0000000001     1     6     9     3
 0.0069714915     1     6     9     4
 0.0019434756     1     6     9    10
 0.0018788525     1     6     9    13
 -0.0000161351     1     6    10     8
 0.0000070773     1     6    10     9
 -0.1046477088     1     6    11     1
 0.0077096487     1     6    11     3
 -0.0000000001     1     6    11     4
 0.0008784733     1     6    11     5
 0.1593620068     1     6    12     1
 -0.0117405828     1     6    12     3
 0.0000000002     1     6    12     4
 -0.0013377767     1     6    12     5
 0.0000000001     1     6    12    13
 -0.0000480906     1     6    13     8
 0.0000210939     1     6    13     9
 0.0000180937     1     7     2     8
 0.0000412506     1     7     2     9
 0.0000000001     1     7     3     9
 -0.0064559561     1     7     3    11
 -0.0042394108     1     7     3    12
 -0.0001345636     1     7     4     8
 -0.0003067828     1     7     4     9
 0.0000000001     1     7     4    11
 0.0002452399     1     7     5    11
 0.0001610409     1     7     5    12
 -0.5356882685     1     7     7     1
 0.0176775575     1     7     7     3
 -0.0000000003     1     7     7     4
 0.0033393597     1     7     7     5
 0.0000000029     1     7     8     1
 -0.1223397163     1     7     8     2
 -0.0000000001     1     7     8     3
 0.0069714915     1     7     8     4
 0.0019434756     1     7     8    10
 0.0018788525     1     7     8    13
 0.0000000065     1     7     9     1
 -0.2789142680     1     7     9     2
 -0.0000000001     1     7     9     3
 0.0158938447     1     7     9     4
 0.0044308021     1     7     9    10
 0.0042834722     1     7     9    13
 0.0000070773     1     7    10     8
 0.0000161351     1     7    10     9
 -0.1593620068     1     7    11     1
 0.0117405828     1     7    11     3
 -0.0000000002     1     7    11     4
 0.0013377767     1     7    11     5
 -0.0000000001     1     7    11    13
 -0.1046477088     1     7    12     1
 0.0077096487     1     7    12     3
 -0.0000000001     1     7    12     4
 0.0008784733     1     7    12     5
 0.0000210939     1     7    13     8
 0.0000480906     1     7    13     9
 0.0000412506     1     8     2     6
 -0.0000180937     1     8     2     7
 0.0000080116     1     8     2    11
 -0.0000473272     1     8     2    12
 0.0000000001     1     8     3     6
 0.0000000001     1     8     3    12
 -0.0003067828     1     8     4     6
 0.0001345636     1     8     4     7
 0.0010679934     1     8     4    11
 -0.0063090325     1     8     4    12
 -0.0000000065     1     8     6     1
 0.2789464995     1     8     6     2
 0.0000000002     1     8     6     3
 -0.0164234075     1     8     6     4
 -0.0046688883     1     8     6    10
 -0.0043147730     1     8     6    13
 0.0000000029     1     8     7     1
 -0.1223538540     1     8     7     2
 -0.0000000001     1     8     7     3
 0.0072037728     1     8     7     4
 0.0020479070     1     8     7    10
 0.0018925819     1     8     7    13
 -0.5519733737     1     8     8     1
 0.0182278420     1     8     8     3
 -0.0000000003     1     8     8     4
 0.0031453365     1     8     8     5
 -0.0000000001     1     8     8    13
 0.0000161351     1     8    10     6
 -0.0000070773     1     8    10     7
 0.0002027371     1     8    10    11
 -0.0011976434     1     8    10    12
 -0.0000000008     1     8    11     1
 0.0358525928     1     8    11     2
 -0.0027612865     1     8    11     4
 -0.0005957019     1     8    11    10
 -0.0014529912     1     8    11    13
 0.0000000049     1     8    12     1
 -0.2117945607     1     8    12     2
 -0.0000000002     1     8    12     3
 0.0163119431     1     8    12     4
 0.0035190320     1     8    12    10
 0.0085833580     1     8    12    13
 0.0000480906     1     8    13     6
 -0.0000210939     1     8    13     7
 -0.0001478073     1     8    13    11
 0.0008731521     1     8    13    12
 -0.0000180937     1     9     2     6
 -0.0000412506     1     9     2     7
 -0.0000473272     1     9     2    11
 -0.0000080116     1     9     2    12
 -0.0000000001     1     9     3     7
 0.0000000001     1     9     3    11
 0.0001345636     1     9     4     6
 0.0003067828     1     9     4     7
 -0.0063090325     1     9     4    11
 -0.0010679934     1     9     4    12
 0.0000000029     1     9     6     1
 -0.1223538539     1     9     6     2
 -0.0000000001     1     9     6     3
 0.0072037728     1     9     6     4
 0.0020479070     1     9     6    10
 0.0018925819     1     9     6    13
 0.0000000065     1     9     7     1
 -0.2789464995     1     9     7     2
 -0.0000000002     1     9     7     3
 0.0164234075     1     9     7     4
 0.0046688883     1     9     7    10
 0.0043147730     1     9     7    13
 -0.5519733737     1     9     9     1
 0.0182278420     1     9     9     3
 -0.0000000003     1     9     9     4
 0.0031453365     1     9     9     5
 -0.0000000001     1     9     9    13
 -0.0000070773     1     9    10     6
 -0.0000161351     1     9    10     7
 -0.0011976434     1     9    10    11
 -0.0002027371     1     9    10    12
 0.0000000049     1     9    11     1
 -0.2117945607     1     9    11     2
 -0.0000000002     1     9    11     3
 0.0163119431     1     9    11     4
 0.0035190320     1     9    11    10
 0.0085833580     1     9    11    13
 0.0000000008     1     9    12     1
 -0.0358525928     1     9    12     2
 0.0027612865     1     9    12     4
 0.0005957019     1     9    12    10
 0.0014529912     1     9    12    13
 -0.0000210939     1     9    13     6
 -0.0000480906     1     9    13     7
 0.0008731521     1     9    13    11
 0.0001478073     1     9    13    12
 -0.0035224354     1    10     2     1
 -0.0000077370     1    10     2     3
 0.0001055357     1    10     2     5
 0.0000000011     1    10     3     1
 -0.0466972074     1    10     3     2
 -0.0010804293     1    10     3     4
 0.0050346038     1    10     3    13
 -0.0330829280     1    10     4     1
 -0.0036822410     1    10     4     3
 -0.0006864236     1    10     4     5
 -0.0000000001     1    10     4    13
 -0.0000000073     1    10     5     1
 0.3115272566     1    10     5     2
 0.0000000003     1    10     5     3
 -0.0198619085     1    10     5     4
 -0.0073067547     1    10     5    13
 0.0046688883     1    10     6     8
 -0.0020479070     1    10     6     9
 -0.0020479070     1    10     7     8
 -0.0046688883     1    10     7     9
 0.0044308021     1    10     8     6
 -0.0019434756     1    10     8     7
 0.0008110042     1    10     8    11
 -0.0047909022     1    10     8    12
 -0.0019434756     1    10     9     6
 -0.0044308021     1    10     9     7
 -0.0047909022     1    10     9    11
 -0.0008110042     1    10     9    12
 -0.5843904970     1    10    10     1
 0.0192170408     1    10    10     3
 -0.0000000003     1    10    10     4
 0.0080838351     1    10    10     5
 -0.0000000001     1    10    10    13
 0.0005957019     1    10    11     8
 -0.0035190320     1    10    11     9
 -0.0035190320     1    10    12     8
 -0.0005957019     1    10    12     9
 0.1631303157     1    10    13     1
 -0.0127109748     1    10    13     3
 0.0000000002     1    10    13     4
 -0.0042228446     1    10    13     5
 0.0000000001     1    10    13    13
 -0.0000080116     1    11     2     8
 0.0000473272     1    11     2     9
 0.0042394108     1    11     3     6
 0.0064559561     1    11     3     7
 -0.0000000001     1    11     3     9
 -0.0000000001     1    11     4     7
 -0.0010679934     1    11     4     8
 0.0063090325     1    11     4     9
 -0.0001610409     1    11     5     6
 -0.0002452399     1    11     5     7
 -0.1046477088     1    11     6     1
 0.0121606430     1    11     6     3
 -0.0000000001     1    11     6     4
 0.0008324070     1    11     6     5
 -0.1593620068     1    11     7     1
 0.0185187473     1    11     7     3
 -0.0000000003     1    11     7     4
 0.0012676250     1    11     7     5
 -0.0000000001     1    11     7    13
 -0.0000000008     1    11     8     1
 0.0358444441     1    11     8     2
 -0.0038827211     1    11     8     4
 -0.0008110042     1    11     8    10
 -0.0013234467     1    11     8    13
 0.0000000049     1    11     9     1
 -0.2117464227     1    11     9     2
 -0.0000000003     1    11     9     3
 0.0229366737     1    11     9     4
 0.0047909022     1    11     9    10
 0.0078180903     1    11     9    13
 -0.0002027371     1    11    10     8
 0.0011976434     1    11    10     9
 -0.5376619010     1    11    11     1
 0.0194107052     1    11    11     3
 -0.0000000002     1    11    11     4
 0.0040840760     1    11    11     5
 -0.0000000002     1    11    11    13
 0.0001478073     1    11    13     8
 -0.0008731521     1    11    13     9
 0.0000473272     1    12     2     8
 0.0000080116     1    12     2     9
 -0.0064559561     1    12     3     6
 0.0042394108     1    12     3     7
 -0.0000000001     1    12     3     8
 0.0000000001     1    12     4     6
 0.0063090325     1    12     4     8
 0.0010679934     1    12     4     9
 0.0002452399     1    12     5     6
 -0.0001610409     1    12     5     7
 0.1593620068     1    12     6     1
 -0.0185187473     1    12     6     3
 0.0000000003     1    12     6     4
 -0.0012676250     1    12     6     5
 0.0000000001     1    12     6    13
 -0.1046477088     1    12     7     1
 0.0121606430     1    12     7     3
 -0.0000000001     1    12     7     4
 0.0008324070     1    12     7     5
 0.0000000049     1    12     8     1
 -0.2117464227     1    12     8     2
 -0.0000000003     1    12     8     3
 0.0229366737     1    12     8     4
 0.0047909022     1    12     8    10
 0.0078180903     1    12     8    13
 0.0000000008     1    12     9     1
 -0.0358444441     1    12     9     2
 0.0038827211     1    12     9     4
 0.0008110042     1    12     9    10
 0.0013234467     1    12     9    13
 0.0011976434     1    12    10     8
 0.0002027371     1    12    10     9
 -0.5376619010     1    12    12     1
 0.0194107052     1    12    12     3
 -0.0000000002     1    12    12     4
 0.0040840760     1    12    12     5
 -0.0000000002     1    12    12    13
 -0.0008731521     1    12    13     8
 -0.0001478073     1    12    13     9
 0.0033666911     1    13     2     1
 0.0000000001     1    13     2     2
 -0.0000080123     1    13     2     3
 -0.0000935561     1    13     2     5
 0.0000000017     1    13     3     1
 -0.0745844164     1    13     3     2
 0.0000000001     1    13     3     3
 0.0014313608     1    13     3     4
 -0.0000000001     1    13     3     5
 -0.0050346038     1    13     3    10
 -0.1127165689     1    13     4     1
 0.0033930934     1    13     4     3
 0.0054291513     1    13     4     5
 0.0000000001     1    13     4    10
 0.0000000036     1    13     5     1
 -0.1578453187     1    13     5     2
 -0.0000000003     1    13     5     3
 0.0177046388     1    13     5     4
 0.0073067547     1    13     5    10
 0.0043147730     1    13     6     8
 -0.0018925819     1    13     6     9
 -0.0000000001     1    13     6    12
 -0.0018925819     1    13     7     8
 -0.0043147730     1    13     7     9
 0.0000000001     1    13     7    11
 0.0042834722     1    13     8     6
 -0.0018788525     1    13     8     7
 0.0000000001     1    13     8     8
 0.0013234467     1    13     8    11
 -0.0078180903     1    13     8    12
 -0.0018788525     1    13     9     6
 -0.0042834722     1    13     9     7
 0.0000000001     1    13     9     9
 -0.0078180903     1    13     9    11
 -0.0013234467     1    13     9    12
 0.1631303157     1    13    10     1
 -0.0180000086     1    13    10     3
 0.0000000003     1    13    10     4
 0.0028088210     1    13    10     5
 0.0000000001     1    13    10    10
 0.0000000001     1    13    11     7
 0.0014529912     1    13    11     8
 -0.0085833580     1    13    11     9
 0.0000000002     1    13    11    11
 -0.0000000001     1    13    12     6
 -0.0085833580     1    13    12     8
 -0.0014529912     1    13    12     9
 0.0000000002     1    13    12    12
 -0.4835088307     1    13    13     1
 0.0130340098     1    13    13     3
 -0.0000000002     1    13    13     4
 -0.0065913498     1    13    13     5
 -0.0000000001     1    13    13    10
 -0.2302787231     2     1     1     2
 0.0004295312     2     1     1     4
 -0.0035224354     2     1     1    10
 0.0033666911     2     1     1    13
 -0.0002619077     2     1     3     2
 0.3391528733     2     1     3     4
 0.0466898730     2     1     3    10
 0.0745717672     2     1     3    13
 0.3391473267     2     1     4     3
 0.0837320213     2     1     4     5
 0.0035789259     2     1     5     2
 0.0837227790     2     1     5     4
 -0.3114227356     2     1     5    10
 0.1577453153     2     1     5    13
 -0.2789142680     2     1     6     8
 0.1223397162     2     1     6     9
 0.1223397163     2     1     7     8
 0.2789142680     2     1     7     9
 -0.2789464995     2     1     8     6
 0.1223538540     2     1     8     7
 -0.0358525928     2     1     8    11
 0.2117945607     2     1     8    12
 0.1223538539     2     1     9     6
 0.2789464995     2     1     9     7
 0.2117945607     2     1     9    11
 0.0358525928     2     1     9    12
 0.0466972074     2     1    10     3
 -0.3115272566     2     1    10     5
 -0.0358444441     2     1    11     8
 0.2117464227     2     1    11     9
 0.2117464227     2     1    12     8
 0.0358444441     2     1    12     9
 -0.0000000001     2     1    13     2
 0.0745844164     2     1    13     3
 0.1578453187     2     1    13     5
 0.2302787231     2     2     1     1
 0.0002619077     2     2     1     3
 -0.0035789259     2     2     1     5
 0.0000000001     2     2     1    13
 0.0002619077     2     2     3     1
 0.5673370993     2     2     3     3
 0.0000000080     2     2     3     4
 -0.0119017373     2     2     3     5
 0.0000000011     2     2     3    10
 0.0000000017     2     2     3    13
 0.0000000080     2     2     4     3
 0.5767677266     2     2     4     4
 0.0000000020     2     2     4     5
 0.0330945506     2     2     4    10
 0.1126810186     2     2     4    13
 -0.0035789259     2     2     5     1
 -0.0119017373     2     2     5     3
 0.0000000020     2     2     5     4
 0.5679994269     2     2     5     5
 -0.0000000073     2     2     5    10
 0.0000000036     2     2     5    13
 0.5357447033     2     2     6     6
 -0.0000000065     2     2     6     8
 0.0000000029     2     2     6     9
 0.1046759715     2     2     6    11
 -0.1594050464     2     2     6    12
 0.5357447033     2     2     7     7
 0.0000000029     2     2     7     8
 0.0000000065     2     2     7     9
 0.1594050464     2     2     7    11
 0.1046759715     2     2     7    12
 -0.0000000065     2     2     8     6
 0.0000000029     2     2     8     7
 0.5519333851     2     2     8     8
 -0.0000000008     2     2     8    11
 0.0000000049     2     2     8    12
 0.0000000029     2     2     9     6
 0.0000000065     2     2     9     7
 0.5519333851     2     2     9     9
 0.0000000049     2     2     9    11
 0.0000000008     2     2     9    12
 0.0000000011     2     2    10     3
 0.0330945506     2     2    10     4
 -0.0000000073     2     2    10     5
 0.5842915089     2     2    10    10
 -0.1630493641     2     2    10    13
 0.1046759715     2     2    11     6
 0.1594050464     2     2    11     7
 -0.0000000008     2     2    11     8
 0.0000000049     2     2    11     9
 0.5377284927     2     2    11    11
 -0.1594050464     2     2    12     6
 0.1046759715     2     2    12     7
 0.0000000049     2     2    12     8
 0.0000000008     2     2    12     9
 0.5377284927     2     2    12    12
 0.0000000001     2     2    13     1
 0.0000000017     2     2    13     3
 0.1126810186     2     2    13     4
 0.0000000036     2     2    13     5
 -0.1630493641     2     2    13    10
 0.4834279647     2     2    13    13
 -0.0002619077     2     3     1     2
 0.0000004386     2     3     1     4
 -0.0000077370     2     3     1    10
 -0.0000080123     2     3     1    13
 -0.5673370993     2     3     3     2
 0.0001789131     2     3     3     4
 -0.0029999763     2     3     3    10
 0.0029125430     2     3     3    13
 -0.3391473267     2     3     4     1
 -0.0000000080     2     3     4     2
 -0.0037541554     2     3     4     5
 -0.0000000001     2     3     4    13
 0.0119017373     2     3     5     2
 -0.0029535264     2     3     5     4
 -0.0000000003     2     3     5     5
 0.0204785839     2     3     5    10
 -0.0191223838     2     3     5    13
 -0.0000000003     2     3     6     6
 0.0167958268     2     3     6     8
 -0.0073671265     2     3     6     9
 -0.0000000001     2     3     6    11
 0.0000000003     2     3     6    12
 -0.0000000003     2     3     7     7
 -0.0073671265     2     3     7     8
 -0.0167958268     2     3     7     9
 -0.0000000003     2     3     7    11
 -0.0000000001     2     3     7    12
 0.0153373532     2     3     8     6
 -0.0067273985     2     3     8     7
 -0.0000000003     2     3     8     8
 0.0036922448     2     3     8    11
 -0.0218114592     2     3     8    12
 -0.0067273986     2     3     9     6
 -0.0153373532     2     3     9     7
 -0.0000000003     2     3     9     9
 -0.0218114592     2     3     9    11
 -0.0036922448     2     3     9    12
 -0.0466972074     2     3    10     1
 -0.0000000011     2     3    10     2
 0.0179897002     2     3    10     5
 -0.0000000003     2     3    10    10
 0.0000000003     2     3    10    13
 -0.0000000001     2     3    11     6
 -0.0000000002     2     3    11     7
 0.0026164464     2     3    11     8
 -0.0154563191     2     3    11     9
 -0.0000000002     2     3    11    11
 0.0000000002     2     3    12     6
 -0.0000000001     2     3    12     7
 -0.0154563191     2     3    12     8
 -0.0026164464     2     3    12     9
 -0.0000000002     2     3    12    12
 -0.0745844164     2     3    13     1
 -0.0000000017     2     3    13     2
 -0.0000000001     2     3    13     4
 -0.0117884065     2     3    13     5
 0.0000000002     2     3    13    10
 -0.0000000002     2     3    13    13
 -0.0004295312     2     4     1     1
 -0.0000004386     2     4     1     3
 0.0000112488     2     4     1     5
 -0.3391528733     2     4     3     1
 -0.0000000080     2     4     3     2
 -0.0001789131     2     4     3     3
 -0.0008141223     2     4     3     5
 -0.5767677266     2     4     4     2
 0.0007451451     2     4     4    10
 -0.0013906605     2     4     4    13
 -0.0837227790     2     4     5     1
 -0.0000000020     2     4     5     2
 0.0029535264     2     4     5     3
 -0.0198268641     2     4     5     5
 0.0000000003     2     4     5    10
 -0.0000000003     2     4     5    13
 -0.0180125273     2     4     6     6
 0.0000000002     2     4     6     8
 -0.0000000001     2     4     6     9
 -0.0121017586     2     4     6    11
 0.0184290755     2     4     6    12
 -0.0180125273     2     4     7     7
 -0.0000000001     2     4     7     8
 -0.0000000002     2     4     7     9
 -0.0184290755     2     4     7    11
 -0.0121017586     2     4     7    12
 0.0000000001     2     4     8     6
 -0.0000000001     2     4     8     7
 -0.0196256147     2     4     8     8
 -0.0000000003     2     4     8    12
 -0.0000000001     2     4     9     6
 -0.0000000001     2     4     9     7