&FCI NORB= 13,NELEC= 14,MS2=0,
 ORBSYM=1,1,1,1,1,1,1,1,1,1,1,1,1
 ISYM=1,
&END
 0.5376364015     1     1     2     2
 -0.0104448960     1     1     2     4
 -0.0025478455     1     1     2    10
 0.8602696896     1     1     3     3
 -0.1161033151     1     1     3     7
 0.0970183967     1     1     3    11
 -0.0104448960     1     1     4     2
 0.6450343611     1     1     4     4
 0.1283014066     1     1     4    10
 0.7090491157     1     1     5     5
 -0.1510246876     1     1     5    12
 0.1552295400     1     1     5    13
 0.7090491157     1     1     6     6
 -0.1552295400     1     1     6    12
 -0.1510246876     1     1     6    13
 -0.1161033151     1     1     7     3
 0.6883976486     1     1     7     7
 -0.1436883760     1     1     7    11
 0.5942003020     1     1     8     8
 0.5942003020     1     1     9     9
 -0.0025478455     1     1    10     2
 0.1283014066     1     1    10     4
 0.3788751797     1     1    10    10
 0.0970183967     1     1    11     3
 -0.1436883760     1     1    11     7
 0.4706923029     1     1    11    11
 -0.1510246876     1     1    12     5
 -0.1552295400     1     1    12     6
 0.5642236619     1     1    12    12
 0.1552295400     1     1    13     5
 -0.1510246876     1     1    13     6
 0.5642236619     1     1    13    13
 -0.5376364015     1     2     2     1
 -0.0150623097     1     2     2     3
 0.0212443009     1     2     2     7
 -0.0129296265     1     2     2    11
 0.1193666777     1     2     3     4
 0.0675579268     1     2     3    10
 0.0104448960     1     2     4     1
 0.1199668961     1     2     4     3
 0.2318451358     1     2     4     7
 -0.0179038021     1     2     4    11
 -0.1487772920     1     2     5     8
 0.0800632721     1     2     5     9
 -0.0800632721     1     2     6     8
 -0.1487772920     1     2     6     9
 0.2326771303     1     2     7     4
 0.0246308720     1     2     7    10
 -0.1481852702     1     2     8     5
 -0.0797446804     1     2     8     6
 0.0954949956     1     2     8    12
 -0.0301095821     1     2     8    13
 0.0797446804     1     2     9     5
 -0.1481852702     1     2     9     6
 0.0301095821     1     2     9    12
 0.0954949956     1     2     9    13
 0.0025478455     1     2    10     1
 0.0675664838     1     2    10     3
 0.0244479807     1     2    10     7
 -0.0619617185     1     2    10    11
 -0.0184215667     1     2    11     4
 -0.0620674973     1     2    11    10
 0.0960558844     1     2    12     8
 0.0302864305     1     2    12     9
 -0.0302864305     1     2    13     8
 0.0960558844     1     2    13     9
 0.0150623097     1     3     2     2
 -0.0005827496     1     3     2     4
 -0.0000737813     1     3     2    10
 -0.8602696896     1     3     3     1
 0.0258997650     1     3     3     7
 -0.0159761577     1     3     3    11
 -0.1199668961     1     3     4     2
 -0.0109453575     1     3     4     4
 -0.0020588115     1     3     4    10
 -0.0182204225     1     3     5     5
 0.0141996204     1     3     5    12
 -0.0145949684     1     3     5    13
 -0.0182204225     1     3     6     6
 0.0145949684     1     3     6    12
 0.0141996204     1     3     6    13
 0.1161033151     1     3     7     1
 -0.0254757553     1     3     7     7
 0.0102440991     1     3     7    11
 -0.0124343280     1     3     8     8
 -0.0124343280     1     3     9     9
 -0.0675664838     1     3    10     2
 -0.0011968215     1     3    10     4
 -0.0017446345     1     3    10    10
 -0.0970183967     1     3    11     1
 0.0107968892     1     3    11     7
 -0.0055713210     1     3    11    11
 0.0083774419     1     3    12     5
 0.0086106879     1     3    12     6
 -0.0126823685     1     3    12    12
 -0.0086106879     1     3    13     5
 0.0083774419     1     3    13     6
 -0.0126823685     1     3    13    13
 0.0104448960     1     4     2     1
 0.0005827496     1     4     2     3
 -0.0008300180     1     4     2     7
 0.0005336715     1     4     2    11
 -0.1193666777     1     4     3     2
 -0.0009877687     1     4     3    10
 -0.6450343611     1     4     4     1
 0.0109453575     1     4     4     3
 -0.0015394589     1     4     4     7
 0.0063192524     1     4     4    11
 0.0081656791     1     4     5     8
 -0.0043942928     1     4     5     9
 0.0043942928     1     4     6     8
 0.0081656791     1     4     6     9
 -0.2326771303     1     4     7     2
 0.0015890530     1     4     7    10
 0.0107608097     1     4     8     5
 0.0057908409     1     4     8     6
 -0.0162768889     1     4     8    12
 0.0051321048     1     4     8    13
 -0.0057908409     1     4     9     5
 0.0107608097     1     4     9     6
 -0.0051321048     1     4     9    12
 -0.0162768889     1     4     9    13
 -0.1283014066     1     4    10     1
 0.0011968215     1     4    10     3
 0.0014179029     1     4    10     7
 -0.0023860712     1     4    10    11
 0.0184215667     1     4    11     2
 -0.0035136698     1     4    11    10
 -0.0086492576     1     4    12     8
 -0.0027271118     1     4    12     9
 0.0027271118     1     4    13     8
 -0.0086492576     1     4    13     9
 -0.0005714215     1     5     2     8
 0.0003075058     1     5     2     9
 0.0056671360     1     5     3    12
 -0.0058249213     1     5     3    13
 -0.0030202380     1     5     4     8
 0.0016253162     1     5     4     9
 -0.7090491157     1     5     5     1
 0.0182204225     1     5     5     3
 0.0167806280     1     5     5     7
 -0.0078154498     1     5     5    11
 0.0036686275     1     5     7    12
 -0.0037707701     1     5     7    13
 0.1481852702     1     5     8     2
 -0.0107608097     1     5     8     4
 -0.0065818304     1     5     8    10
 -0.0797446804     1     5     9     2
 0.0057908409     1     5     9     4
 0.0035419577     1     5     9    10
 -0.0010113057     1     5    10     8
 0.0005442258     1     5    10     9
 -0.0033621463     1     5    11    12
 0.0034557557     1     5    11    13
 0.1510246876     1     5    12     1
 -0.0083774419     1     5    12     3
 -0.0048442507     1     5    12     7
 0.0002814661     1     5    12    11
 -0.1552295400     1     5    13     1
 0.0086106879     1     5    13     3
 0.0049791251     1     5    13     7
 -0.0002893027     1     5    13    11
 -0.0003075058     1     6     2     8
 -0.0005714215     1     6     2     9
 0.0058249213     1     6     3    12
 0.0056671360     1     6     3    13
 -0.0016253162     1     6     4     8
 -0.0030202380     1     6     4     9
 -0.7090491157     1     6     6     1
 0.0182204225     1     6     6     3
 0.0167806280     1     6     6     7
 -0.0078154498     1     6     6    11
 0.0037707701     1     6     7    12
 0.0036686275     1     6     7    13
 0.0797446804     1     6     8     2
 -0.0057908409     1     6     8     4
 -0.0035419577     1     6     8    10
 0.1481852702     1     6     9     2
 -0.0107608097     1     6     9     4
 -0.0065818304     1     6     9    10
 -0.0005442258     1     6    10     8
 -0.0010113057     1     6    10     9
 -0.0034557557     1     6    11    12
 -0.0033621463     1     6    11    13
 0.1552295400     1     6    12     1
 -0.0086106879     1     6    12     3
 -0.0049791251     1     6    12     7
 0.0002893027     1     6    12    11
 0.1510246876     1     6    13     1
 -0.0083774419     1     6    13     3
 -0.0048442507     1     6    13     7
 0.0002814661     1     6    13    11
 -0.0212443009     1     7     2     2
 0.0008300180     1     7     2     4
 0.0001901347     1     7     2    10
 0.1161033151     1     7     3     1
 -0.0258997650     1     7     3     3
 -0.0005622413     1     7     3    11
 -0.2318451358     1     7     4     2
 0.0015394589     1     7     4     4
 0.0000803049     1     7     4    10
 -0.0167806280     1     7     5     5
 0.0086715551     1     7     5    12
 -0.0089129898     1     7     5    13
 -0.0167806280     1     7     6     6
 0.0089129898     1     7     6    12
 0.0086715551     1     7     6    13
 -0.6883976486     1     7     7     1
 0.0254757553     1     7     7     3
 0.0093485421     1     7     7    11
 -0.0081262684     1     7     8     8
 -0.0081262684     1     7     9     9
 -0.0244479807     1     7    10     2
 -0.0014179029     1     7    10     4
 0.0012392731     1     7    10    10
 0.1436883760     1     7    11     1
 -0.0107968892     1     7    11     3
 -0.0030752126     1     7    11    11
 0.0048442507     1     7    12     5
 0.0049791251     1     7    12     6
 -0.0078371311     1     7    12    12
 -0.0049791251     1     7    13     5
 0.0048442507     1     7    13     6
 -0.0078371311     1     7    13    13
 0.0005714215     1     8     2     5
 0.0003075058     1     8     2     6
 -0.0005749644     1     8     2    12
 0.0001812863     1     8     2    13
 0.0030202380     1     8     4     5
 0.0016253162     1     8     4     6
 -0.0071801020     1     8     4    12
 0.0022638869     1     8     4    13
 0.1487772920     1     8     5     2
 -0.0081656791     1     8     5     4
 -0.0053792233     1     8     5    10
 0.0800632721     1     8     6     2
 -0.0043942928     1     8     6     4
 -0.0028947846     1     8     6    10
 -0.5942003020     1     8     8     1
 0.0124343280     1     8     8     3
 0.0081262684     1     8     8     7
 -0.0008714348     1     8     8    11
 0.0010113057     1     8    10     5
 0.0005442258     1     8    10     6
 -0.0022934600     1     8    10    12
 0.0007231282     1     8    10    13
 -0.0960558844     1     8    12     2
 0.0086492576     1     8    12     4
 0.0058374185     1     8    12    10
 0.0302864305     1     8    13     2
 -0.0027271118     1     8    13     4
 -0.0018405386     1     8    13    10
 -0.0003075058     1     9     2     5
 0.0005714215     1     9     2     6
 -0.0001812863     1     9     2    12
 -0.0005749644     1     9     2    13
 -0.0016253162     1     9     4     5
 0.0030202380     1     9     4     6
 -0.0022638869     1     9     4    12
 -0.0071801020     1     9     4    13
 -0.0800632721     1     9     5     2
 0.0043942928     1     9     5     4
 0.0028947846     1     9     5    10
 0.1487772920     1     9     6     2
 -0.0081656791     1     9     6     4
 -0.0053792233     1     9     6    10
 -0.5942003020     1     9     9     1
 0.0124343280     1     9     9     3
 0.0081262684     1     9     9     7
 -0.0008714348     1     9     9    11
 -0.0005442258     1     9    10     5
 0.0010113057     1     9    10     6
 -0.0007231282     1     9    10    12
 -0.0022934600     1     9    10    13
 -0.0302864305     1     9    12     2
 0.0027271118     1     9    12     4
 0.0018405386     1     9    12    10
 -0.0960558844     1     9    13     2
 0.0086492576     1     9    13     4
 0.0058374185     1     9    13    10
 0.0025478455     1    10     2     1
 0.0000737813     1    10     2     3
 -0.0001901347     1    10     2     7
 0.0001124903     1    10     2    11
 -0.0675579268     1    10     3     2
 0.0009877687     1    10     3     4
 -0.1283014066     1    10     4     1
 0.0020588115     1    10     4     3
 -0.0000803049     1    10     4     7
 0.0011528085     1    10     4    11
 0.0053792233     1    10     5     8
 -0.0028947846     1    10     5     9
 0.0028947846     1    10     6     8
 0.0053792233     1    10     6     9
 -0.0246308720     1    10     7     2
 -0.0015890530     1    10     7     4
 0.0065818304     1    10     8     5
 0.0035419577     1    10     8     6
 -0.0081533456     1    10     8    12
 0.0025707507     1    10     8    13
 -0.0035419577     1    10     9     5
 0.0065818304     1    10     9     6
 -0.0025707507     1    10     9    12
 -0.0081533456     1    10     9    13
 -0.3788751797     1    10    10     1
 0.0017446345     1    10    10     3
 -0.0012392731     1    10    10     7
 0.0004870394     1    10    10    11
 0.0620674973     1    10    11     2
 0.0035136698     1    10    11     4
 -0.0058374185     1    10    12     8
 -0.0018405386     1    10    12     9
 0.0018405386     1    10    13     8
 -0.0058374185     1    10    13     9
 0.0129296265     1    11     2     2
 -0.0005336715     1    11     2     4
 -0.0001124903     1    11     2    10
 -0.0970183967     1    11     3     1
 0.0159761577     1    11     3     3
 0.0005622413     1    11     3     7
 0.0179038021     1    11     4     2
 -0.0063192524     1    11     4     4
 -0.0011528085     1    11     4    10
 0.0078154498     1    11     5     5
 -0.0036231564     1    11     5    12
 0.0037240330     1    11     5    13
 0.0078154498     1    11     6     6
 -0.0037240330     1    11     6    12
 -0.0036231564     1    11     6    13
 0.1436883760     1    11     7     1
 -0.0102440991     1    11     7     3
 -0.0093485421     1    11     7     7
 0.0008714348     1    11     8     8
 0.0008714348     1    11     9     9
 0.0619617185     1    11    10     2
 0.0023860712     1    11    10     4
 -0.0004870394     1    11    10    10
 -0.4706923029     1    11    11     1
 0.0055713210     1    11    11     3
 0.0030752126     1    11    11     7
 -0.0002814661     1    11    12     5
 -0.0002893027     1    11    12     6
 0.0007823009     1    11    12    12
 0.0002893027     1    11    13     5
 -0.0002814661     1    11    13     6
 0.0007823009     1    11    13    13
 0.0005749644     1    12     2     8
 0.0001812863     1    12     2     9
 -0.0056671360     1    12     3     5
 -0.0058249213     1    12     3     6
 0.0071801020     1    12     4     8
 0.0022638869     1    12     4     9
 0.1510246876     1    12     5     1
 -0.0141996204     1    12     5     3
 -0.0086715551     1    12     5     7
 0.0036231564     1    12     5    11
 0.1552295400     1    12     6     1
 -0.0145949684     1    12     6     3
 -0.0089129898     1    12     6     7
 0.0037240330     1    12     6    11
 -0.0036686275     1    12     7     5
 -0.0037707701     1    12     7     6
 -0.0954949956     1    12     8     2
 0.0162768889     1    12     8     4
 0.0081533456     1    12     8    10
 -0.0301095821     1    12     9     2
 0.0051321048     1    12     9     4
 0.0025707507     1    12     9    10
 0.0022934600     1    12    10     8
 0.0007231282     1    12    10     9
 0.0033621463     1    12    11     5
 0.0034557557     1    12    11     6
 -0.5642236619     1    12    12     1
 0.0126823685     1    12    12     3
 0.0078371311     1    12    12     7
 -0.0007823009     1    12    12    11
 -0.0001812863     1    13     2     8
 0.0005749644     1    13     2     9
 0.0058249213     1    13     3     5
 -0.0056671360     1    13     3     6
 -0.0022638869     1    13     4     8
 0.0071801020     1    13     4     9
 -0.1552295400     1    13     5     1
 0.0145949684     1    13     5     3
 0.0089129898     1    13     5     7
 -0.0037240330     1    13     5    11
 0.1510246876     1    13     6     1
 -0.0141996204     1    13     6     3
 -0.0086715551     1    13     6     7
 0.0036231564     1    13     6    11
 0.0037707701     1    13     7     5
 -0.0036686275     1    13     7     6
 0.0301095821     1    13     8     2
 -0.0051321048     1    13     8     4
 -0.0025707507     1    13     8    10
 -0.0954949956     1    13     9     2
 0.0162768889     1    13     9     4
 0.0081533456     1    13     9    10
 -0.0007231282     1    13    10     8
 0.0022934600     1    13    10     9
 -0.0034557557     1    13    11     5
 0.0033621463     1    13    11     6
 -0.5642236619     1    13    13     1
 0.0126823685     1    13    13     3
 0.0078371311     1    13    13     7
 -0.0007823009     1    13    13    11
 -0.5376364015     2     1     1     2
 0.0104448960     2     1     1     4
 0.0025478455     2     1     1    10
 -0.0150623097     2     1     3     2
 0.1199668961     2     1     3     4
 0.0675664838     2     1     3    10
 0.1193666777     2     1     4     3
 0.2326771303     2     1     4     7
 -0.0184215667     2     1     4    11
 -0.1481852702     2     1     5     8
 0.0797446804     2     1     5     9
 -0.0797446804     2     1     6     8
 -0.1481852702     2     1     6     9
 0.0212443009     2     1     7     2
 0.2318451358     2     1     7     4
 0.0244479807     2     1     7    10
 -0.1487772920     2     1     8     5
 -0.0800632721     2     1     8     6
 0.0960558844     2     1     8    12
 -0.0302864305     2     1     8    13
 0.0800632721     2     1     9     5
 -0.1487772920     2     1     9     6
 0.0302864305     2     1     9    12
 0.0960558844     2     1     9    13
 0.0675579268     2     1    10     3
 0.0246308720     2     1    10     7
 -0.0620674973     2     1    10    11
 -0.0129296265     2     1    11     2
 -0.0179038021     2     1    11     4
 -0.0619617185     2     1    11    10
 0.0954949956     2     1    12     8
 0.0301095821     2     1    12     9
 -0.0301095821     2     1    13     8
 0.0954949956     2     1    13     9
 0.5376364015     2     2     1     1
 0.0150623097     2     2     1     3
 -0.0212443009     2     2     1     7
 0.0129296265     2     2     1    11
 0.0150623097     2     2     3     1
 0.8607263885     2     2     3     3
 -0.1170921025     2     2     3     7
 0.0976885892     2     2     3    11
 0.6447321172     2     2     4     4
 0.1281716491     2     2     4    10
 0.7099615953     2     2     5     5
 -0.1516338308     2     2     5    12
 0.1558556432     2     2     5    13
 0.7099615953     2     2     6     6
 -0.1558556432     2     2     6    12
 -0.1516338308     2     2     6    13
 -0.0212443009     2     2     7     1
 -0.1170921025     2     2     7     3
 0.6901380905     2     2     7     7
 -0.1447431316     2     2     7    11
 0.5938052746     2     2     8     8
 0.5938052746     2     2     9     9
 0.1281716491     2     2    10     4
 0.3788510556     2     2    10    10
 0.0129296265     2     2    11     1
 0.0976885892     2     2    11     3
 -0.1447431316     2     2    11     7
 0.4713638308     2     2    11    11
 -0.1516338308     2     2    12     5
 -0.1558556432     2     2    12     6
 0.5650389229     2     2    12    12
 0.1558556432     2     2    13     5
 -0.1516338308     2     2    13     6
 0.5650389229     2     2    13    13
 -0.0150623097     2     3     1     2
 0.0005827496     2     3     1     4
 0.0000737813     2     3     1    10
 -0.8607263885     2     3     3     2
 0.0164202492     2     3     3     4
 0.0037439140     2     3     3    10
 -0.1193666777     2     3     4     1
 -0.0203668416     2     3     4     7
 0.0049683824     2     3     4    11
 0.0209146588     2     3     5     8
 -0.0112550510     2     3     5     9
 0.0112550510     2     3     6     8
 0.0209146588     2     3     6     9
 0.1170921025     2     3     7     2
 -0.0268758095     2     3     7     4
 -0.0055974352     2     3     7    10
 0.0138221926     2     3     8     5
 0.0074382989     2     3     8     6
 -0.0141974307     2     3     8    12
 0.0044764514     2     3     8    13
 -0.0074382989     2     3     9     5
 0.0138221926     2     3     9     6
 -0.0044764514     2     3     9    12
 -0.0141974307     2     3     9    13
 -0.0675579268     2     3    10     1
 -0.0022274376     2     3    10     7
 0.0043959127     2     3    10    11
 -0.0976885892     2     3    11     2
 0.0092438935     2     3    11     4
 0.0064207430     2     3    11    10
 -0.0138313276     2     3    12     8
 -0.0043610191     2     3    12     9
 0.0043610191     2     3    13     8
 -0.0138313276     2     3    13     9
 -0.0104448960     2     4     1     1
 -0.0005827496     2     4     1     3
 0.0008300180     2     4     1     7
 -0.0005336715     2     4     1    11
 -0.1199668961     2     4     3     1
 -0.0164202492     2     4     3     3
 0.0065400199     2     4     3     7
 -0.0045544539     2     4     3    11
 -0.6447321172     2     4     4     2
 -0.0000165901     2     4     4    10
 -0.0204949696     2     4     5     5
 0.0127659376     2     4     5    12
 -0.0131213687     2     4     5    13
 -0.0204949696     2     4     6     6
 0.0131213687     2     4     6    12
 0.0127659376     2     4     6    13
 -0.2318451358     2     4     7     1
 0.0268758095     2     4     7     3
 -0.0214965537     2     4     7     7
 0.0180289597     2     4     7    11
 -0.0161427064     2     4     8     8
 -0.0161427064     2     4     9     9
 -0.1281716491     2     4    10     2
 0.0005610832     2     4    10    10
 0.0179038021     2     4    11     1
 -0.0092438935     2     4    11     3
 0.0070647699     2     4    11     7
 -0.0063013808     2     4    11    11
 0.0088754105     2     4    12     5
 0.0091225211     2     4    12     6
 -0.0140467000     2     4    12    12
 -0.0091225211     2     4    13     5
 0.0088754105     2     4    13     6
 -0.0140467000     2     4    13    13
 0.0005714215     2     5     1     8
 -0.0003075058     2     5     1     9
 0.0059651095     2     5     3     8
 -0.0032100745     2     5     3     9
 0.0035364568     2     5     4    12
 -0.0036349193     2     5     4    13
 -0.7099615953     2     5     5     2
 0.0204949696     2     5     5     4
 0.0091165533     2     5     5    10
 -0.0013489519     2     5     7     8
 0.0007259274     2     5     7     9
 0.1487772920     2     5     8     1
 -0.0138221926     2     5     8     3
 -0.0010207496     2     5     8     7
 -0.0028901044     2     5     8    11
 -0.0800632721     2     5     9     1
 0.0074382989     2     5     9     3
 0.0005493080     2     5     9     7
 0.0015552858     2     5     9    11
 0.0010654307     2     5    10    12
 -0.0010950947     2     5    10    13
 -0.0010967413     2     5    11     8
 0.0005902023     2     5    11     9
 0.1516338308     2     5    12     2
 -0.0088754105     2     5    12     4
 -0.0051573328     2     5    12    10
 -0.1558556432     2     5    13     2
 0.0091225211     2     5    13     4
 0.0053009240     2     5    13    10
 0.0003075058     2     6     1     8
 0.0005714215     2     6     1     9
 0.0032100745     2     6     3     8
 0.0059651095     2     6     3     9
 0.0036349193     2     6     4    12
 0.0035364568     2     6     4    13
 -0.7099615953     2     6     6     2
 0.0204949696     2     6     6     4
 0.0091165533     2     6     6    10
 -0.0007259274     2     6     7     8
 -0.0013489519     2     6     7     9
 0.0800632721     2     6     8     1
 -0.0074382989     2     6     8     3
 -0.0005493080     2     6     8     7
 -0.0015552858     2     6     8    11
 0.1487772920     2     6     9     1
 -0.0138221926     2     6     9     3
 -0.0010207496     2     6     9     7
 -0.0028901044     2     6     9    11
 0.0010950947     2     6    10    12
 0.0010654307     2     6    10    13
 -0.0005902023     2     6    11     8
 -0.0010967413     2     6    11     9
 0.1558556432     2     6    12     2
 -0.0091225211     2     6    12     4
 -0.0053009240     2     6    12    10
 0.1516338308     2     6    13     2
 -0.0088754105     2     6    13     4
 -0.0051573328     2     6    13    10
 0.0212443009     2     7     1     2
 -0.0008300180     2     7     1     4
 -0.0001901347     2     7     1    10
 0.1170921025     2     7     3     2
 -0.0065400199     2     7     3     4
 -0.0030246787     2     7     3    10
 -0.2326771303     2     7     4     1
 0.0203668416     2     7     4     3
 0.0107797219     2     7     4    11
 -0.0006604076     2     7     5     8
 0.0003553928     2     7     5     9
 -0.0003553928     2     7     6     8
 -0.0006604076     2     7     6     9
 -0.6901380905     2     7     7     2
 0.0214965537     2     7     7     4
 0.0063908011     2     7     7    10
 0.0010207496     2     7     8     5
 0.0005493080     2     7     8     6
 -0.0068885451     2     7     8    12
 0.0021719590     2     7     8    13
 -0.0005493080     2     7     9     5
 0.0010207496     2     7     9     6
 -0.0021719590     2     7     9    12
 -0.0068885451     2     7     9    13
 -0.0246308720     2     7    10     1
 0.0022274376     2     7    10     3
 -0.0038090388     2     7    10    11
 0.1447431316     2     7    11     2
 -0.0070647699     2     7    11     4
 -0.0084605651     2     7    11    10
 -0.0008389351     2     7    12     8
 -0.0002645163     2     7    12     9
 0.0002645163     2     7    13     8
 -0.0008389351     2     7    13     9
 -0.0005714215     2     8     1     5
 -0.0003075058     2     8     1     6
 0.0005749644     2     8     1    12
 -0.0001812863     2     8     1    13
 -0.0059651095     2     8     3     5
 -0.0032100745     2     8     3     6
 -0.0002869910     2     8     3    12
 0.0000904883     2     8     3    13
 0.1481852702     2     8     5     1
 -0.0209146588     2     8     5     3
 0.0006604076     2     8     5     7
 -0.0018429372     2     8     5    11
 0.0797446804     2     8     6     1
 -0.0112550510     2     8     6     3
 0.0003553928     2     8     6     7
 -0.0009917614     2     8     6    11
 0.0013489519     2     8     7     5
 0.0007259274     2     8     7     6
 -0.0058664055     2     8     7    12
 0.0018496783     2     8     7    13
 -0.5938052746     2     8     8     2
 0.0161427064     2     8     8     4
 0.0076127213     2     8     8    10
 0.0010967413     2     8    11     5
 0.0005902023     2     8    11     6
 0.0027164804     2     8    11    12
 -0.0008565066     2     8    11    13
 -0.0954949956     2     8    12     1
 0.0138313276     2     8    12     3
 0.0008389351     2     8    12     7
 0.0026776160     2     8    12    11
 0.0301095821     2     8    13     1
 -0.0043610191     2     8    13     3
 -0.0002645163     2     8    13     7
 -0.0008442526     2     8    13    11
 0.0003075058     2     9     1     5
 -0.0005714215     2     9     1     6
 0.0001812863     2     9     1    12
 0.0005749644     2     9     1    13
 0.0032100745     2     9     3     5
 -0.0059651095     2     9     3     6
 -0.0000904883     2     9     3    12
 -0.0002869910     2     9     3    13
 -0.0797446804     2     9     5     1
 0.0112550510     2     9     5     3
 -0.0003553928     2     9     5     7
 0.0009917614     2     9     5    11
 0.1481852702     2     9     6     1
 -0.0209146588     2     9     6     3
 0.0006604076     2     9     6     7
 -0.0018429372     2     9     6    11
 -0.0007259274     2     9     7     5
 0.0013489519     2     9     7     6
 -0.0018496783     2     9     7    12
 -0.0058664055     2     9     7    13
 -0.5938052746     2     9     9     2
 0.0161427064     2     9     9     4
 0.0076127213     2     9     9    10
 -0.0005902023     2     9    11     5
 0.0010967413     2     9    11     6
 0.0008565066     2     9    11    12
 0.0027164804     2     9    11    13
 -0.0301095821     2     9    12     1
 0.0043610191     2     9    12     3
 0.0002645163     2     9    12     7
 0.0008442526     2     9    12    11
 -0.0954949956     2     9    13     1
 0.0138313276     2     9    13     3
 0.0008389351     2     9    13     7
 0.0026776160     2     9    13    11
 -0.0025478455     2    10     1     1
 -0.0000737813     2    10     1     3
 0.0001901347     2    10     1     7
 -0.0001124903     2    10     1    11
 -0.0675664838     2    10     3     1
 -0.0037439140     2    10     3     3
 0.0030246787     2    10     3     7
 -0.0021102994     2    10     3    11
 -0.1281716491     2    10     4     2
 0.0000165901     2    10     4     4
 -0.0091165533     2    10     5     5
 0.0063107332     2    10     5    12
 -0.0064864376     2    10     5    13
 -0.0091165533     2    10     6     6
 0.0064864376     2    10     6    12
 0.0063107332     2    10     6    13
 -0.0244479807     2    10     7     1
 0.0055974352     2    10     7     3
 -0.0063908011     2    10     7     7
 0.0048842527     2    10     7    11
 -0.0076127213     2    10     8     8
 -0.0076127213     2    10     9     9
 -0.3788510556     2    10    10     2
 -0.0005610832     2    10    10     4
 0.0619617185     2    10    11     1
 -0.0064207430     2    10    11     3
 0.0084605651     2    10    11     7
 -0.0054100333     2    10    11    11
 0.0051573328     2    10    12     5
 0.0053009240     2    10    12     6
 -0.0076754470     2    10    12    12
 -0.0053009240     2    10    13     5
 0.0051573328     2    10    13     6
 -0.0076754470     2    10    13    13
 -0.0129296265     2    11     1     2
 0.0005336715     2    11     1     4
 0.0001124903     2    11     1    10
 -0.0976885892     2    11     3     2
 0.0045544539     2    11     3     4
 0.0021102994     2    11     3    10
 0.0184215667     2    11     4     1
 -0.0049683824     2    11     4     3
 -0.0107797219     2    11     4     7
 0.0018429372     2    11     5     8
 -0.0009917614     2    11     5     9
 0.0009917614     2    11     6     8
 0.0018429372     2    11     6     9
 0.1447431316     2    11     7     2
 -0.0180289597     2    11     7     4
 -0.0048842527     2    11     7    10
 0.0028901044     2    11     8     5
 0.0015552858     2    11     8     6
 0.0000173778     2    11     8    12
 -0.0000054792     2    11     8    13
 -0.0015552858     2    11     9     5
 0.0028901044     2    11     9     6
 0.0000054792     2    11     9    12
 0.0000173778     2    11     9    13
 0.0620674973     2    11    10     1
 -0.0043959127     2    11    10     3
 0.0038090388     2    11    10     7
 -0.4713638308     2    11    11     2
 0.0063013808     2    11    11     4
 0.0054100333     2    11    11    10
 -0.0026776160     2    11    12     8
 -0.0008442526     2    11    12     9
 0.0008442526     2    11    13     8
 -0.0026776160     2    11    13     9
 -0.0005749644     2    12     1     8
 -0.0001812863     2    12     1     9
 0.0002869910     2    12     3     8
 0.0000904883     2    12     3     9
 -0.0035364568     2    12     4     5