&FCI NORB= 13,NELEC= 14,MS2=0,
 ORBSYM=1,1,1,1,1,1,1,1,1,1,1,1,1
 ISYM=1,
&END
 0.2198059971     1     1     2     2
 -0.0002325454     1     1     2     4
 0.0000000001     1     1     2     5
 -0.0032224525     1     1     2    10
 0.0000000001     1     1     2    13
 0.5629896322     1     1     3     3
 -0.0000000016     1     1     3     4
 0.0015164694     1     1     3     5
 0.0000000002     1     1     3    10
 0.1302095219     1     1     3    13
 -0.0002325454     1     1     4     2
 -0.0000000016     1     1     4     3
 0.5695664169     1     1     4     4
 0.0000000004     1     1     4     5
 -0.0348213705     1     1     4    10
 -0.0000000006     1     1     4    13
 0.0000000001     1     1     5     2
 0.0015164694     1     1     5     3
 0.0000000004     1     1     5     4
 0.5499584101     1     1     5     5
 0.0000000014     1     1     5    10
 0.0966146426     1     1     5    13
 0.5319011345     1     1     6     6
 -0.0000000013     1     1     6     8
 0.0000000007     1     1     6     9
 0.1932249913     1     1     6    11
 0.0063846869     1     1     6    12
 0.5319011345     1     1     7     7
 0.0000000007     1     1     7     8
 0.0000000013     1     1     7     9
 -0.0063846869     1     1     7    11
 0.1932249913     1     1     7    12
 -0.0000000013     1     1     8     6
 0.0000000007     1     1     8     7
 0.5464550820     1     1     8     8
 -0.0000000009     1     1     8    11
 0.0000000004     1     1     8    12
 0.0000000007     1     1     9     6
 0.0000000013     1     1     9     7
 0.5464550820     1     1     9     9
 0.0000000004     1     1     9    11
 0.0000000009     1     1     9    12
 -0.0032224525     1     1    10     2
 0.0000000002     1     1    10     3
 -0.0348213705     1     1    10     4
 0.0000000014     1     1    10     5
 0.5757731878     1     1    10    10
 0.0000000009     1     1    10    13
 0.1932249913     1     1    11     6
 -0.0063846869     1     1    11     7
 -0.0000000009     1     1    11     8
 0.0000000004     1     1    11     9
 0.5314119598     1     1    11    11
 0.0063846869     1     1    12     6
 0.1932249913     1     1    12     7
 0.0000000004     1     1    12     8
 0.0000000009     1     1    12     9
 0.5314119598     1     1    12    12
 0.0000000001     1     1    13     2
 0.1302095219     1     1    13     3
 -0.0000000006     1     1    13     4
 0.0966146426     1     1    13     5
 0.0000000009     1     1    13    10
 0.5397594495     1     1    13    13
 -0.2198059971     1     2     2     1
 -0.0001228161     1     2     2     3
 -0.0031328369     1     2     2     5
 -0.0018204759     1     2     2    13
 0.3450614848     1     2     3     4
 -0.0426936047     1     2     3    10
 0.0002325454     1     2     4     1
 0.3450697962     1     2     4     3
 -0.0815748395     1     2     4     5
 0.1189117091     1     2     4    13
 -0.0000000001     1     2     5     1
 -0.0815797617     1     2     5     4
 -0.3011001987     1     2     5    10
 0.2803553379     1     2     6     8
 -0.1320365042     1     2     6     9
 -0.1320365042     1     2     7     8
 -0.2803553379     1     2     7     9
 0.2803061167     1     2     8     6
 -0.1320133229     1     2     8     7
 0.1959522033     1     2     8    11
 -0.0844961781     1     2     8    12
 -0.1320133229     1     2     9     6
 -0.2803061167     1     2     9     7
 -0.0844961781     1     2     9    11
 -0.1959522033     1     2     9    12
 0.0032224525     1     2    10     1
 -0.0426866259     1     2    10     3
 -0.3010059176     1     2    10     5
 -0.1922429050     1     2    10    13
 0.1960018153     1     2    11     8
 -0.0845175712     1     2    11     9
 -0.0845175712     1     2    12     8
 -0.1960018153     1     2    12     9
 -0.0000000001     1     2    13     1
 0.1189421978     1     2    13     4
 -0.1923125193     1     2    13    10
 0.0001228161     1     3     2     2
 -0.0000002795     1     3     2     4
 -0.0000048207     1     3     2    10
 -0.5629896322     1     3     3     1
 -0.0023422663     1     3     3     5
 -0.0023128205     1     3     3    13
 0.0000000016     1     3     4     1
 -0.3450697962     1     3     4     2
 -0.0003296706     1     3     4     4
 -0.0029950428     1     3     4    10
 -0.0015164694     1     3     5     1
 -0.0188572752     1     3     5     5
 -0.0145613898     1     3     5    13
 -0.0179317201     1     3     6     6
 -0.0222591555     1     3     6    11
 -0.0007355039     1     3     6    12
 -0.0179317201     1     3     7     7
 0.0007355039     1     3     7    11
 -0.0222591555     1     3     7    12
 -0.0183224731     1     3     8     8
 -0.0183224731     1     3     9     9
 -0.0000000002     1     3    10     1
 0.0426866259     1     3    10     2
 -0.0020546083     1     3    10     4
 -0.0193202309     1     3    10    10
 -0.0144998256     1     3    11     6
 0.0004791142     1     3    11     7
 -0.0194590524     1     3    11    11
 -0.0004791142     1     3    12     6
 -0.0144998256     1     3    12     7
 -0.0194590524     1     3    12    12
 -0.1302095219     1     3    13     1
 -0.0098457222     1     3    13     5
 -0.0081635694     1     3    13    13
 0.0002325454     1     4     2     1
 0.0000002795     1     4     2     3
 0.0000073696     1     4     2     5
 -0.0000191667     1     4     2    13
 0.0000000016     1     4     3     1
 -0.3450614848     1     4     3     2
 -0.0009172723     1     4     3    10
 -0.5695664169     1     4     4     1
 0.0003296706     1     4     4     3
 0.0004766143     1     4     4     5
 0.0008341997     1     4     4    13
 -0.0000000004     1     4     5     1
 0.0815797617     1     4     5     2
 0.0189223069     1     4     5    10
 -0.0163964595     1     4     6     8
 0.0077220973     1     4     6     9
 0.0077220973     1     4     7     8
 0.0163964595     1     4     7     9
 -0.0159879360     1     4     8     6
 0.0075296985     1     4     8     7
 -0.0212362545     1     4     8    11
 0.0091572450     1     4     8    12
 0.0075296985     1     4     9     6
 0.0159879360     1     4     9     7
 0.0091572450     1     4     9    11
 0.0212362545     1     4     9    12
 0.0348213705     1     4    10     1
 0.0020546083     1     4    10     3
 0.0179804607     1     4    10     5
 0.0160549454     1     4    10    13
 -0.0150298028     1     4    11     8
 0.0064809728     1     4    11     9
 0.0064809728     1     4    12     8
 0.0150298028     1     4    12     9
 0.0000000006     1     4    13     1
 -0.1189421978     1     4    13     2
 0.0114729048     1     4    13    10
 -0.0000000001     1     5     2     1
 0.0031328369     1     5     2     2
 -0.0000073696     1     5     2     4
 -0.0000938375     1     5     2    10
 -0.0015164694     1     5     3     1
 0.0023422663     1     5     3     3
 -0.0045194230     1     5     3    13
 -0.0000000004     1     5     4     1
 0.0815748395     1     5     4     2
 -0.0004766143     1     5     4     4
 0.0006157991     1     5     4    10
 -0.5499584101     1     5     5     1
 0.0188572752     1     5     5     3
 0.0077876524     1     5     5    13
 0.0033614575     1     5     6     6
 0.0021072861     1     5     6    11
 0.0000696305     1     5     6    12
 0.0033614575     1     5     7     7
 -0.0000696305     1     5     7    11
 0.0021072861     1     5     7    12
 0.0034292594     1     5     8     8
 0.0034292594     1     5     9     9
 -0.0000000014     1     5    10     1
 0.3010059176     1     5    10     2
 -0.0179804607     1     5    10     4
 0.0075635402     1     5    10    10
 0.0024806204     1     5    11     6
 -0.0000819665     1     5    11     7
 0.0047549530     1     5    11    11
 0.0000819665     1     5    12     6
 0.0024806204     1     5    12     7
 0.0047549530     1     5    12    12
 -0.0966146426     1     5    13     1
 0.0098457222     1     5    13     3
 0.0131554345     1     5    13    13
 0.0000432880     1     6     2     8
 -0.0000203869     1     6     2     9
 -0.0076092526     1     6     3    11
 -0.0002514307     1     6     3    12
 -0.0002151649     1     6     4     8
 0.0001013343     1     6     4     9
 -0.0004104505     1     6     5    11
 -0.0000135624     1     6     5    12
 -0.5319011345     1     6     6     1
 0.0179317201     1     6     6     3
 -0.0033614575     1     6     6     5
 0.0075185087     1     6     6    13
 0.0000000013     1     6     8     1
 -0.2803061167     1     6     8     2
 0.0159879360     1     6     8     4
 -0.0038101932     1     6     8    10
 -0.0000000007     1     6     9     1
 0.1320133229     1     6     9     2
 -0.0075296985     1     6     9     4
 0.0017944534     1     6     9    10
 -0.0000251579     1     6    10     8
 0.0000118483     1     6    10     9
 -0.1932249913     1     6    11     1
 0.0144998256     1     6    11     3
 -0.0024806204     1     6    11     5
 0.0132735883     1     6    11    13
 -0.0063846869     1     6    12     1
 0.0004791142     1     6    12     3
 -0.0000819665     1     6    12     5
 0.0004385960     1     6    12    13
 0.0018894553     1     6    13    11
 0.0000624328     1     6    13    12
 -0.0000203869     1     7     2     8
 -0.0000432880     1     7     2     9
 0.0002514307     1     7     3    11
 -0.0076092526     1     7     3    12
 0.0001013343     1     7     4     8
 0.0002151649     1     7     4     9
 0.0000135624     1     7     5    11
 -0.0004104505     1     7     5    12
 -0.5319011345     1     7     7     1
 0.0179317201     1     7     7     3
 -0.0033614575     1     7     7     5
 0.0075185087     1     7     7    13
 -0.0000000007     1     7     8     1
 0.1320133229     1     7     8     2
 -0.0075296985     1     7     8     4
 0.0017944534     1     7     8    10
 -0.0000000013     1     7     9     1
 0.2803061167     1     7     9     2
 -0.0159879360     1     7     9     4
 0.0038101932     1     7     9    10
 0.0000118483     1     7    10     8
 0.0000251579     1     7    10     9
 0.0063846869     1     7    11     1
 -0.0004791142     1     7    11     3
 0.0000819665     1     7    11     5
 -0.0004385960     1     7    11    13
 -0.1932249913     1     7    12     1
 0.0144998256     1     7    12     3
 -0.0024806204     1     7    12     5
 0.0132735883     1     7    12    13
 -0.0000624328     1     7    13    11
 0.0018894553     1     7    13    12
 -0.0000432880     1     8     2     6
 0.0000203869     1     8     2     7
 -0.0000492262     1     8     2    11
 0.0000212268     1     8     2    12
 0.0002151649     1     8     4     6
 -0.0001013343     1     8     4     7
 -0.0060351307     1     8     4    11
 0.0026023973     1     8     4    12
 0.0000000013     1     8     6     1
 -0.2803553379     1     8     6     2
 0.0163964595     1     8     6     4
 -0.0039496725     1     8     6    10
 -0.0000000007     1     8     7     1
 0.1320365042     1     8     7     2
 -0.0077220973     1     8     7     4
 0.0018601428     1     8     7    10
 -0.5464550820     1     8     8     1
 0.0183224731     1     8     8     3
 -0.0034292594     1     8     8     5
 0.0091180853     1     8     8    13
 0.0000251579     1     8    10     6
 -0.0000118483     1     8    10     7
 0.0009610990     1     8    10    11
 -0.0004144337     1     8    10    12
 0.0000000009     1     8    11     1
 -0.1960018153     1     8    11     2
 0.0150298028     1     8    11     4
 -0.0028015517     1     8    11    10
 -0.0000000004     1     8    12     1
 0.0845175712     1     8    12     2
 -0.0064809728     1     8    12     4
 0.0012080517     1     8    12    10
 0.0000203869     1     9     2     6
 0.0000432880     1     9     2     7
 0.0000212268     1     9     2    11
 0.0000492262     1     9     2    12
 -0.0001013343     1     9     4     6
 -0.0002151649     1     9     4     7
 0.0026023973     1     9     4    11
 0.0060351307     1     9     4    12
 -0.0000000007     1     9     6     1
 0.1320365042     1     9     6     2
 -0.0077220973     1     9     6     4
 0.0018601428     1     9     6    10
 -0.0000000013     1     9     7     1
 0.2803553379     1     9     7     2
 -0.0163964595     1     9     7     4
 0.0039496725     1     9     7    10
 -0.5464550820     1     9     9     1
 0.0183224731     1     9     9     3
 -0.0034292594     1     9     9     5
 0.0091180853     1     9     9    13
 -0.0000118483     1     9    10     6
 -0.0000251579     1     9    10     7
 -0.0004144337     1     9    10    11
 -0.0009610990     1     9    10    12
 -0.0000000004     1     9    11     1
 0.0845175712     1     9    11     2
 -0.0064809728     1     9    11     4
 0.0012080517     1     9    11    10
 -0.0000000009     1     9    12     1
 0.1960018153     1     9    12     2
 -0.0150298028     1     9    12     4
 0.0028015517     1     9    12    10
 0.0032224525     1    10     2     1
 0.0000048207     1    10     2     3
 0.0000938375     1    10     2     5
 0.0000714936     1    10     2    13
 -0.0000000002     1    10     3     1
 0.0426936047     1    10     3     2
 0.0009172723     1    10     3     4
 0.0348213705     1    10     4     1
 0.0029950428     1    10     4     3
 -0.0006157991     1    10     4     5
 0.0044057181     1    10     4    13
 -0.0000000014     1    10     5     1
 0.3011001987     1    10     5     2
 -0.0189223069     1    10     5     4
 0.0039496725     1    10     6     8
 -0.0018601428     1    10     6     9
 -0.0018601428     1    10     7     8
 -0.0039496725     1    10     7     9
 0.0038101932     1    10     8     6
 -0.0017944534     1    10     8     7
 0.0037805483     1    10     8    11
 -0.0016302031     1    10     8    12
 -0.0017944534     1    10     9     6
 -0.0038101932     1    10     9     7
 -0.0016302031     1    10     9    11
 -0.0037805483     1    10     9    12
 -0.5757731878     1    10    10     1
 0.0193202309     1    10    10     3
 -0.0075635402     1    10    10     5
 0.0064093194     1    10    10    13
 0.0028015517     1    10    11     8
 -0.0012080517     1    10    11     9
 -0.0012080517     1    10    12     8
 -0.0028015517     1    10    12     9
 -0.0000000009     1    10    13     1
 0.1923125193     1    10    13     2
 -0.0114729048     1    10    13     4
 0.0000492262     1    11     2     8
 -0.0000212268     1    11     2     9
 0.0076092526     1    11     3     6
 -0.0002514307     1    11     3     7
 0.0060351307     1    11     4     8
 -0.0026023973     1    11     4     9
 0.0004104505     1    11     5     6
 -0.0000135624     1    11     5     7
 -0.1932249913     1    11     6     1
 0.0222591555     1    11     6     3
 -0.0021072861     1    11     6     5
 0.0114409211     1    11     6    13
 0.0063846869     1    11     7     1
 -0.0007355039     1    11     7     3
 0.0000696305     1    11     7     5
 -0.0003780396     1    11     7    13
 0.0000000009     1    11     8     1
 -0.1959522033     1    11     8     2
 0.0212362545     1    11     8     4
 -0.0037805483     1    11     8    10
 -0.0000000004     1    11     9     1
 0.0844961781     1    11     9     2
 -0.0091572450     1    11     9     4
 0.0016302031     1    11     9    10
 -0.0009610990     1    11    10     8
 0.0004144337     1    11    10     9
 -0.5314119598     1    11    11     1
 0.0194590524     1    11    11     3
 -0.0047549530     1    11    11     5
 0.0160546532     1    11    11    13
 -0.0018894553     1    11    13     6
 0.0000624328     1    11    13     7
 -0.0000212268     1    12     2     8
 -0.0000492262     1    12     2     9
 0.0002514307     1    12     3     6
 0.0076092526     1    12     3     7
 -0.0026023973     1    12     4     8
 -0.0060351307     1    12     4     9
 0.0000135624     1    12     5     6
 0.0004104505     1    12     5     7
 -0.0063846869     1    12     6     1
 0.0007355039     1    12     6     3
 -0.0000696305     1    12     6     5
 0.0003780396     1    12     6    13
 -0.1932249913     1    12     7     1
 0.0222591555     1    12     7     3
 -0.0021072861     1    12     7     5
 0.0114409211     1    12     7    13
 -0.0000000004     1    12     8     1
 0.0844961781     1    12     8     2
 -0.0091572450     1    12     8     4
 0.0016302031     1    12     8    10
 -0.0000000009     1    12     9     1
 0.1959522033     1    12     9     2
 -0.0212362545     1    12     9     4
 0.0037805483     1    12     9    10
 0.0004144337     1    12    10     8
 0.0009610990     1    12    10     9
 -0.5314119598     1    12    12     1
 0.0194590524     1    12    12     3
 -0.0047549530     1    12    12     5
 0.0160546532     1    12    12    13
 -0.0000624328     1    12    13     6
 -0.0018894553     1    12    13     7
 -0.0000000001     1    13     2     1
 0.0018204759     1    13     2     2
 0.0000191667     1    13     2     4
 -0.0000714936     1    13     2    10
 -0.1302095219     1    13     3     1
 0.0023128205     1    13     3     3
 0.0045194230     1    13     3     5
 0.0000000006     1    13     4     1
 -0.1189117091     1    13     4     2
 -0.0008341997     1    13     4     4
 -0.0044057181     1    13     4    10
 -0.0966146426     1    13     5     1
 0.0145613898     1    13     5     3
 -0.0077876524     1    13     5     5
 -0.0075185087     1    13     6     6
 -0.0114409211     1    13     6    11
 -0.0003780396     1    13     6    12
 -0.0075185087     1    13     7     7
 0.0003780396     1    13     7    11
 -0.0114409211     1    13     7    12
 -0.0091180853     1    13     8     8
 -0.0091180853     1    13     9     9
 -0.0000000009     1    13    10     1
 0.1922429050     1    13    10     2
 -0.0160549454     1    13    10     4
 -0.0064093194     1    13    10    10
 -0.0132735883     1    13    11     6
 0.0004385960     1    13    11     7
 -0.0160546532     1    13    11    11
 -0.0004385960     1    13    12     6
 -0.0132735883     1    13    12     7
 -0.0160546532     1    13    12    12
 -0.5397594495     1    13    13     1
 0.0081635694     1    13    13     3
 -0.0131554345     1    13    13     5
 -0.2198059971     2     1     1     2
 0.0002325454     2     1     1     4
 -0.0000000001     2     1     1     5
 0.0032224525     2     1     1    10
 -0.0000000001     2     1     1    13
 -0.0001228161     2     1     3     2
 0.3450697962     2     1     3     4
 -0.0426866259     2     1     3    10
 0.3450614848     2     1     4     3
 -0.0815797617     2     1     4     5
 0.1189421978     2     1     4    13
 -0.0031328369     2     1     5     2
 -0.0815748395     2     1     5     4
 -0.3010059176     2     1     5    10
 0.2803061167     2     1     6     8
 -0.1320133229     2     1     6     9
 -0.1320133229     2     1     7     8
 -0.2803061167     2     1     7     9
 0.2803553379     2     1     8     6
 -0.1320365042     2     1     8     7
 0.1960018153     2     1     8    11
 -0.0845175712     2     1     8    12
 -0.1320365042     2     1     9     6
 -0.2803553379     2     1     9     7
 -0.0845175712     2     1     9    11
 -0.1960018153     2     1     9    12
 -0.0426936047     2     1    10     3
 -0.3011001987     2     1    10     5
 -0.1923125193     2     1    10    13
 0.1959522033     2     1    11     8
 -0.0844961781     2     1    11     9
 -0.0844961781     2     1    12     8
 -0.1959522033     2     1    12     9
 -0.0018204759     2     1    13     2
 0.1189117091     2     1    13     4
 -0.1922429050     2     1    13    10
 0.2198059971     2     2     1     1
 0.0001228161     2     2     1     3
 0.0031328369     2     2     1     5
 0.0018204759     2     2     1    13
 0.0001228161     2     2     3     1
 0.5629983224     2     2     3     3
 0.0000000016     2     2     3     4
 0.0015242933     2     2     3     5
 -0.0000000002     2     2     3    10
 0.1302495831     2     2     3    13
 0.0000000016     2     2     4     3
 0.5695567262     2     2     4     4
 -0.0000000004     2     2     4     5
 -0.0348339190     2     2     4    10
 0.0000000006     2     2     4    13
 0.0031328369     2     2     5     1
 0.0015242933     2     2     5     3
 -0.0000000004     2     2     5     4
 0.5500449595     2     2     5     5
 -0.0000000014     2     2     5    10
 0.0966767282     2     2     5    13
 0.5319359362     2     2     6     6
 0.0000000013     2     2     6     8
 -0.0000000007     2     2     6     9
 0.1932680023     2     2     6    11
 0.0063861081     2     2     6    12
 0.5319359362     2     2     7     7
 -0.0000000007     2     2     7     8
 -0.0000000013     2     2     7     9
 -0.0063861081     2     2     7    11
 0.1932680023     2     2     7    12
 0.0000000013     2     2     8     6
 -0.0000000007     2     2     8     7
 0.5464082031     2     2     8     8
 0.0000000009     2     2     8    11
 -0.0000000004     2     2     8    12
 -0.0000000007     2     2     9     6
 -0.0000000013     2     2     9     7
 0.5464082031     2     2     9     9
 -0.0000000004     2     2     9    11
 -0.0000000009     2     2     9    12
 -0.0000000002     2     2    10     3
 -0.0348339190     2     2    10     4
 -0.0000000014     2     2    10     5
 0.5756771223     2     2    10    10
 -0.0000000009     2     2    10    13
 0.1932680023     2     2    11     6
 -0.0063861081     2     2    11     7
 0.0000000009     2     2    11     8
 -0.0000000004     2     2    11     9
 0.5314627911     2     2    11    11
 0.0063861081     2     2    12     6
 0.1932680023     2     2    12     7
 -0.0000000004     2     2    12     8
 -0.0000000009     2     2    12     9
 0.5314627911     2     2    12    12
 0.0018204759     2     2    13     1
 0.1302495831     2     2    13     3
 0.0000000006     2     2    13     4
 0.0966767282     2     2    13     5
 -0.0000000009     2     2    13    10
 0.5398234324     2     2    13    13
 -0.0001228161     2     3     1     2
 0.0000002795     2     3     1     4
 0.0000048207     2     3     1    10
 -0.5629983224     2     3     3     2
 0.0000947715     2     3     3     4
 0.0027146299     2     3     3    10
 -0.3450614848     2     3     4     1
 -0.0000000016     2     3     4     2
 0.0032134746     2     3     4     5
 0.0020363118     2     3     4    13
 -0.0015242933     2     3     5     2
 0.0023081181     2     3     5     4
 0.0195019719     2     3     5    10
 -0.0166576221     2     3     6     8
 0.0078450948     2     3     6     9
 0.0078450948     2     3     7     8
 0.0166576221     2     3     7     9
 -0.0154608691     2     3     8     6
 0.0072814705     2     3     8     7
 -0.0202971137     2     3     8    11
 0.0087522799     2     3     8    12
 0.0072814705     2     3     9     6
 0.0154608691     2     3     9     7
 0.0087522799     2     3     9    11
 0.0202971137     2     3     9    12
 0.0426936047     2     3    10     1
 0.0000000002     2     3    10     2
 0.0171445753     2     3    10     5
 0.0141232574     2     3    10    13
 -0.0143492232     2     3    11     8
 0.0061875013     2     3    11     9
 0.0061875013     2     3    12     8
 0.0143492232     2     3    12     9
 -0.1302495831     2     3    13     2
 0.0016607982     2     3    13     4
 0.0106526439     2     3    13    10
 -0.0002325454     2     4     1     1
 -0.0000002795     2     4     1     3
 -0.0000073696     2     4     1     5
 0.0000191667     2     4     1    13
 -0.3450697962     2     4     3     1
 -0.0000000016     2     4     3     2
 -0.0000947715     2     4     3     3
 0.0009206304     2     4     3     5
 0.0004706618     2     4     3    13
 -0.5695567262     2     4     4     2
 -0.0002363229     2     4     4    10
 0.0815748395     2     4     5     1
 0.0000000004     2     4     5     2
 -0.0023081181     2     4     5     3
 -0.0182892328     2     4     5     5
 -0.0150682931     2     4     5    13
 -0.0179903727     2     4     6     6
 -0.0221984868     2     4     6    11
 -0.0007334993     2     4     6    12
 -0.0179903727     2     4     7     7
 0.0007334993     2     4     7    11
 -0.0221984868     2     4     7    12
 -0.0193180082     2     4     8     8
 -0.0193180082     2     4     9     9
 0.0348339190     2     4    10     2
 -0.0210475233     2     4    10    10
 -0.0150746167     2     4    11     6
 0.0004981069     2     4    11     7
 -0.0205813683     2     4    11    11
 -0.0004981069     2     4    12     6
 -0.0150746167     2     4    12     7
 -0.0205813683     2     4    12    12
 -0.1189117091     2     4    13     1
 -0.0000000006     2     4    13     2
 -0.0016607982     2     4    13     3
 -0.0100173403     2     4    13     5
 -0.0101271782     2     4    13    13
 0.0000000001     2     5     1     1
 -0.0031328369     2     5     1     2
 0.0000073696     2     5     1     4
 0.0000938375     2     5     1    10
 -0.0015242933     2     5     3     2
 -0.0009206304     2     5     3     4
 0.0021613433     2     5     3    10
 0.0815797617     2     5     4     1
 0.0000000004     2     5     4     2
 -0.0032134746     2     5     4     3
 -0.0047962242     2     5     4    13
 -0.5500449595     2     5     5     2
 0.0182892328     2     5     5     4
 -0.0005079589     2     5     5    10
 0.0001343320     2     5     6     8
 -0.0000632651     2     5     6     9
 -0.0000632651     2     5     7     8
 -0.0001343320     2     5     7     9
 0.0004152134     2     5     8     6
 -0.0001955494     2     5     8     7
 0.0020432514     2     5     8    11
 -0.0008810666     2     5     8    12
 -0.0001955494     2     5     9     6
 -0.0004152134     2     5     9     7
 -0.0008810666     2     5     9    11
 -0.0020432514     2     5     9    12
 0.3011001987     2     5    10     1
 0.0000000014     2     5    10     2
 -0.0171445753     2     5    10     3
 -0.0110455692     2     5    10    13
 0.0020403617     2     5    11     8
 -0.0008798205     2     5    11     9
 -0.0008798205     2     5    12     8
 -0.0020403617     2     5    12     9
 -0.0966767282     2     5    13     2
 0.0100173403     2     5    13     4
 -0.0039066149     2     5    13    10
 -0.0000432880     2     6     1     8
 0.0000203869     2     6     1     9
 -0.0011448170     2     6     3     8
 0.0005391644     2     6     3     9
 -0.0068201722     2     6     4    11
 -0.0002253573     2     6     4    12
 -0.0002444246     2     6     5     8
 0.0001151146     2     6     5     9
 -0.5319359362     2     6     6     2
 0.0179903727     2     6     6     4
 -0.0009569627     2     6     6    10
 -0.2803553379     2     6     8     1
 -0.0000000013     2     6     8     2
 0.0154608691     2     6     8     3
 -0.0004152134     2     6     8     5
 0.0092938711     2     6     8    13
 0.1320365042     2     6     9     1
 0.0000000007     2     6     9     2
 -0.0072814705     2     6     9     3
 0.0001955494     2     6     9     5
 -0.0043770533     2     6     9    13
 0.0010140112     2     6    10    11
 0.0000335057     2     6    10    12
 -0.1932680023     2     6    11     2
 0.0150746167     2     6    11     4
 -0.0026487656     2     6    11    10
 -0.0063861081     2     6    12     2
 0.0004981069     2     6    12     4
 -0.0000875225     2     6    12    10
 0.0004861491     2     6    13     8
 -0.0002289574     2     6    13     9
 0.0000203869     2     7     1     8
 0.0000432880     2     7     1     9
 0.0005391644     2     7     3     8
 0.0011448170     2     7     3     9
 0.0002253573     2     7     4    11
 -0.0068201722     2     7     4    12
 0.0001151146     2     7     5     8
 0.0002444246     2     7     5     9
 -0.5319359362     2     7     7     2
 0.0179903727     2     7     7     4
 -0.0009569627     2     7     7    10
 0.1320365042     2     7     8     1
 0.0000000007     2     7     8     2
 -0.0072814705     2     7     8     3
 0.0001955494     2     7     8     5
 -0.0043770533     2     7     8    13
 0.2803553379     2     7     9     1
 0.0000000013     2     7     9     2
 -0.0154608691     2     7     9     3
 0.0004152134     2     7     9     5
 -0.0092938711     2     7     9    13
 -0.0000335057     2     7    10    11
 0.0010140112     2     7    10    12
 0.0063861081     2     7    11     2
 -0.0004981069     2     7    11     4
 0.0000875225     2     7    11    10
 -0.1932680023     2     7    12     2
 0.0150746167     2     7    12     4
 -0.0026487656     2     7    12    10
 -0.0002289574     2     7    13     8
 -0.0004861491     2     7    13     9
 0.0000432880     2     8     1     6
 -0.0000203869     2     8     1     7
 0.0000492262     2     8     1    11
 -0.0000212268     2     8     1    12
 0.0011448170     2     8     3     6
 -0.0005391644     2     8     3     7
 -0.0057587442     2     8     3    11
 0.0024832172     2     8     3    12
 0.0002444246     2     8     5     6
 -0.0001151146     2     8     5     7
 -0.0000806104     2     8     5    11
 0.0000347599     2     8     5    12
 -0.2803061167     2     8     6     1
 -0.0000000013     2     8     6     2
 0.0166576221     2     8     6     3
 -0.0001343320     2     8     6     5
 0.0091319377     2     8     6    13
 0.1320133229     2     8     7     1
 0.0000000007     2     8     7     2
 -0.0078450948     2     8     7     3
 0.0000632651     2     8     7     5
 -0.0043007889     2     8     7    13
 -0.5464082031     2     8     8     2
 0.0193180082     2     8     8     4
 -0.0017392910     2     8     8    10
 -0.1959522033     2     8    11     1
 -0.0000000009     2     8    11     2
 0.0143492232     2     8    11     3
 -0.0020403617     2     8    11     5
 0.0128613462     2     8    11    13
 0.0844961781     2     8    12     1
 0.0000000004     2     8    12     2
 -0.0061875013     2     8    12     3
 0.0008798205     2     8    12     5
 -0.0055459167     2     8    12    13
 -0.0004861491     2     8    13     6