&FCI NORB= 13,NELEC= 14,MS2=0,
 ORBSYM=1,1,1,1,1,1,1,1,1,1,1,1,1
 ISYM=1,
&END
 0.1790994148     1     1     2     2
 -0.0001094835     1     1     2     4
 -0.0020951136     1     1     2    10
 0.5466841379     1     1     3     3
 -0.0000000019     1     1     3     4
 0.0019947325     1     1     3     5
 0.0000000001     1     1     3    10
 0.0785832635     1     1     3    11
 -0.0001094835     1     1     4     2
 -0.0000000019     1     1     4     3
 0.5512273480     1     1     4     4
 0.0000000003     1     1     4     5
 -0.0208431535     1     1     4    10
 -0.0000000004     1     1     4    11
 0.0019947325     1     1     5     3
 0.0000000003     1     1     5     4
 0.5086554098     1     1     5     5
 0.0000000017     1     1     5    10
 0.1680083871     1     1     5    11
 0.5168649809     1     1     6     6
 0.0000000018     1     1     6     8
 -0.0000000002     1     1     6     9
 -0.0006514162     1     1     6    12
 -0.2038785961     1     1     6    13
 0.5168649809     1     1     7     7
 0.0000000002     1     1     7     8
 0.0000000018     1     1     7     9
 -0.2038785961     1     1     7    12
 0.0006514162     1     1     7    13
 0.0000000018     1     1     8     6
 0.0000000002     1     1     8     7
 0.5235922416     1     1     8     8
 0.0000000001     1     1     8    11
 -0.0000000002     1     1     8    12
 -0.0000000012     1     1     8    13
 -0.0000000002     1     1     9     6
 0.0000000018     1     1     9     7
 0.5235922416     1     1     9     9
 -0.0000000010     1     1     9    12
 0.0000000001     1     1     9    13
 -0.0020951136     1     1    10     2
 0.0000000001     1     1    10     3
 -0.0208431535     1     1    10     4
 0.0000000017     1     1    10     5
 0.5410237641     1     1    10    10
 0.0000000012     1     1    10    11
 -0.0000000001     1     1    10    13
 0.0785832635     1     1    11     3
 -0.0000000004     1     1    11     4
 0.1680083871     1     1    11     5
 0.0000000001     1     1    11     8
 0.0000000012     1     1    11    10
 0.5316535927     1     1    11    11
 -0.0006514162     1     1    12     6
 -0.2038785961     1     1    12     7
 -0.0000000002     1     1    12     8
 -0.0000000010     1     1    12     9
 0.5083657346     1     1    12    12
 -0.2038785961     1     1    13     6
 0.0006514162     1     1    13     7
 -0.0000000012     1     1    13     8
 0.0000000001     1     1    13     9
 -0.0000000001     1     1    13    10
 0.5083657346     1     1    13    13
 -0.1790994148     1     2     2     1
 -0.0000365362     1     2     2     3
 -0.0019974069     1     2     2     5
 -0.0000000001     1     2     2    10
 -0.0021613579     1     2     2    11
 0.3698287793     1     2     3     4
 -0.0184712598     1     2     3    10
 0.0001094835     1     2     4     1
 0.3698288597     1     2     4     3
 -0.0452550908     1     2     4     5
 0.0771599346     1     2     4    11
 -0.0452581713     1     2     5     4
 0.0000000004     1     2     5     6
 -0.3347871071     1     2     5    10
 -0.0000000001     1     2     5    13
 0.0000000004     1     2     6     5
 0.0000000005     1     2     6     6
 0.0000000001     1     2     6     7
 -0.3418894401     1     2     6     8
 0.0406596285     1     2     6     9
 0.0000000001     1     2     6    11
 -0.0000000002     1     2     6    13
 0.0000000001     1     2     7     6
 -0.0000000004     1     2     7     7
 -0.0406596285     1     2     7     8
 -0.3418894401     1     2     7     9
 0.0000000002     1     2     7    12
 -0.3418659467     1     2     8     6
 -0.0406568345     1     2     8     7
 -0.0000000004     1     2     8     8
 -0.0000000004     1     2     8    10
 0.0251440806     1     2     8    12
 0.2058159594     1     2     8    13
 0.0406568345     1     2     9     6
 -0.3418659467     1     2     9     7
 0.0000000004     1     2     9     9
 0.2058159594     1     2     9    12
 -0.0251440806     1     2     9    13
 0.0020951136     1     2    10     1
 -0.0184696817     1     2    10     3
 -0.3347403466     1     2    10     5
 -0.0000000004     1     2    10     8
 -0.2247243410     1     2    10    11
 0.0771566282     1     2    11     4
 0.0000000001     1     2    11     6
 -0.2247755299     1     2    11    10
 0.0000000002     1     2    12     7
 0.0251473120     1     2    12     8
 0.2058424103     1     2    12     9
 -0.0000000001     1     2    12    12
 -0.0000000001     1     2    13     5
 -0.0000000002     1     2    13     6
 0.2058424103     1     2    13     8
 -0.0251473120     1     2    13     9
 0.0000000001     1     2    13    13
 0.0000365362     1     3     2     2
 -0.0000000804     1     3     2     4
 -0.0000015781     1     3     2    10
 -0.5466841379     1     3     3     1
 -0.0011872698     1     3     3     5
 -0.0017020818     1     3     3    11
 0.0000000019     1     3     4     1
 -0.3698288597     1     3     4     2
 -0.0001218533     1     3     4     4
 -0.0018873710     1     3     4    10
 -0.0019947325     1     3     5     1
 -0.0172798516     1     3     5     5
 -0.0202918142     1     3     5    11
 -0.0183897362     1     3     6     6
 0.0000732131     1     3     6    12
 0.0229140509     1     3     6    13
 -0.0183897362     1     3     7     7
 0.0229140509     1     3     7    12
 -0.0000732131     1     3     7    13
 -0.0187027737     1     3     8     8
 0.0000000001     1     3     8    13
 -0.0187027737     1     3     9     9
 -0.0000000001     1     3    10     1
 0.0184696817     1     3    10     2
 -0.0010414846     1     3    10     4
 -0.0194854950     1     3    10    10
 -0.0785832635     1     3    11     1
 -0.0137432681     1     3    11     5
 -0.0167065178     1     3    11    11
 0.0000492846     1     3    12     6
 0.0154249812     1     3    12     7
 -0.0198230940     1     3    12    12
 0.0154249812     1     3    13     6
 -0.0000492846     1     3    13     7
 -0.0198230940     1     3    13    13
 0.0001094835     1     4     2     1
 0.0000000804     1     4     2     3
 0.0000030805     1     4     2     5
 0.0000033064     1     4     2    11
 0.0000000019     1     4     3     1
 -0.3698287793     1     4     3     2
 -0.0008458864     1     4     3    10
 -0.5512273480     1     4     4     1
 0.0001218533     1     4     4     3
 -0.0000125497     1     4     4     5
 0.0000320173     1     4     4    11
 -0.0000000003     1     4     5     1
 0.0452581713     1     4     5     2
 0.0184261643     1     4     5    10
 0.0184659917     1     4     6     8
 -0.0021960911     1     4     6     9
 0.0000000001     1     4     7     7
 0.0021960911     1     4     7     8
 0.0184659917     1     4     7     9
 -0.0000000001     1     4     7    12
 0.0186773535     1     4     8     6
 0.0022212276     1     4     8     7
 0.0000000001     1     4     8     8
 -0.0028498696     1     4     8    12
 -0.0233275039     1     4     8    13
 -0.0022212276     1     4     9     6
 0.0186773535     1     4     9     7
 -0.0233275039     1     4     9    12
 0.0028498696     1     4     9    13
 0.0208431535     1     4    10     1
 0.0010414846     1     4    10     3
 0.0184375849     1     4    10     5
 0.0221139131     1     4    10    11
 0.0000000004     1     4    11     1
 -0.0771566282     1     4    11     2
 0.0155321396     1     4    11    10
 -0.0019475039     1     4    12     8
 -0.0159412225     1     4    12     9
 -0.0159412225     1     4    13     8
 0.0019475039     1     4    13     9
 0.0019974069     1     5     2     2
 -0.0000030805     1     5     2     4
 -0.0000467605     1     5     2    10
 -0.0019947325     1     5     3     1
 0.0011872698     1     5     3     3
 -0.0065485461     1     5     3    11
 -0.0000000003     1     5     4     1
 0.0452550908     1     5     4     2
 0.0000125497     1     5     4     4
 -0.0000114206     1     5     4    10
 -0.5086554098     1     5     5     1
 0.0172798516     1     5     5     3
 0.0033311666     1     5     5    11
 -0.0000000004     1     5     6     2
 0.0018819909     1     5     6     6
 -0.0000031799     1     5     6    12
 -0.0009952516     1     5     6    13
 0.0018819909     1     5     7     7
 -0.0009952516     1     5     7    12
 0.0000031799     1     5     7    13
 0.0019061497     1     5     8     8
 0.0019061497     1     5     9     9
 -0.0000000017     1     5    10     1
 0.3347403466     1     5    10     2
 -0.0184375849     1     5    10     4
 0.0041386031     1     5    10    10
 -0.1680083871     1     5    11     1
 0.0137432681     1     5    11     3
 0.0105305630     1     5    11    11
 -0.0000035896     1     5    12     6
 -0.0011234694     1     5    12     7
 0.0024274496     1     5    12    12
 0.0000000001     1     5    13     2
 -0.0011234694     1     5    13     6
 0.0000035896     1     5    13     7
 0.0024274496     1     5    13    13
 -0.0000234934     1     6     2     8
 0.0000027940     1     6     2     9
 0.0000239285     1     6     3    12
 0.0074890697     1     6     3    13
 -0.0002113618     1     6     4     8
 0.0000251365     1     6     4     9
 -0.0000000004     1     6     5     2
 0.0000004097     1     6     5    12
 0.0001282178     1     6     5    13
 -0.5168649809     1     6     6     1
 -0.0000000005     1     6     6     2
 0.0183897362     1     6     6     3
 -0.0018819909     1     6     6     5
 0.0041030800     1     6     6    11
 -0.0000000001     1     6     7     2
 -0.0000000018     1     6     8     1
 0.3418659467     1     6     8     2
 -0.0186773535     1     6     8     4
 0.0024240075     1     6     8    10
 0.0000000002     1     6     9     1
 -0.0406568345     1     6     9     2
 0.0022212276     1     6     9     4
 -0.0002882782     1     6     9    10
 -0.0000092730     1     6    10     8
 0.0000011028     1     6    10     9
 -0.0000000001     1     6    11     2
 -0.0000027836     1     6    11    12
 -0.0008711894     1     6    11    13
 0.0006514162     1     6    12     1
 -0.0000492846     1     6    12     3
 0.0000035896     1     6    12     5
 -0.0000248535     1     6    12    11
 0.2038785961     1     6    13     1
 0.0000000002     1     6    13     2
 -0.0154249812     1     6    13     3
 0.0011234694     1     6    13     5
 -0.0077785882     1     6    13    11
 -0.0000027940     1     7     2     8
 -0.0000234934     1     7     2     9
 0.0074890697     1     7     3    12
 -0.0000239285     1     7     3    13
 -0.0000251365     1     7     4     8
 -0.0002113618     1     7     4     9
 -0.0000000001     1     7     4    12
 0.0001282178     1     7     5    12
 -0.0000004097     1     7     5    13
 -0.0000000001     1     7     6     2
 -0.5168649809     1     7     7     1
 0.0000000004     1     7     7     2
 0.0183897362     1     7     7     3
 -0.0000000001     1     7     7     4
 -0.0018819909     1     7     7     5
 0.0041030800     1     7     7    11
 -0.0000000002     1     7     8     1
 0.0406568345     1     7     8     2
 -0.0022212276     1     7     8     4
 0.0002882782     1     7     8    10
 -0.0000000018     1     7     9     1
 0.3418659467     1     7     9     2
 -0.0186773535     1     7     9     4
 0.0024240075     1     7     9    10
 -0.0000011028     1     7    10     8
 -0.0000092730     1     7    10     9
 -0.0008711894     1     7    11    12
 0.0000027836     1     7    11    13
 0.2038785961     1     7    12     1
 -0.0000000002     1     7    12     2
 -0.0154249812     1     7    12     3
 0.0011234694     1     7    12     5
 -0.0077785882     1     7    12    11
 -0.0006514162     1     7    13     1
 0.0000492846     1     7    13     3
 -0.0000035896     1     7    13     5
 0.0000248535     1     7    13    11
 0.0000234934     1     8     2     6
 0.0000027940     1     8     2     7
 -0.0000032314     1     8     2    12
 -0.0000264509     1     8     2    13
 0.0000000001     1     8     3    13
 0.0002113618     1     8     4     6
 0.0000251365     1     8     4     7
 -0.0009023657     1     8     4    12
 -0.0073862814     1     8     4    13
 -0.0000000018     1     8     6     1
 0.3418894401     1     8     6     2
 -0.0184659917     1     8     6     4
 0.0024332805     1     8     6    10
 -0.0000000002     1     8     7     1
 0.0406596285     1     8     7     2
 -0.0021960911     1     8     7     4
 0.0002893810     1     8     7    10
 -0.5235922416     1     8     8     1
 0.0000000004     1     8     8     2
 0.0187027737     1     8     8     3
 -0.0000000001     1     8     8     4
 -0.0019061497     1     8     8     5
 0.0047687511     1     8     8    11
 0.0000000004     1     8    10     2
 0.0000092730     1     8    10     6
 0.0000011028     1     8    10     7
 0.0000594667     1     8    10    12
 0.0004867632     1     8    10    13
 -0.0000000001     1     8    11     1
 0.0000000002     1     8    12     1
 -0.0251473120     1     8    12     2
 0.0019475039     1     8    12     4
 -0.0001855890     1     8    12    10
 0.0000000012     1     8    13     1
 -0.2058424103     1     8    13     2
 0.0159412225     1     8    13     4
 -0.0015191315     1     8    13    10
 -0.0000027940     1     9     2     6
 0.0000234934     1     9     2     7
 -0.0000264509     1     9     2    12
 0.0000032314     1     9     2    13
 -0.0000251365     1     9     4     6
 0.0002113618     1     9     4     7
 -0.0073862814     1     9     4    12
 0.0009023657     1     9     4    13
 0.0000000002     1     9     6     1
 -0.0406596285     1     9     6     2
 0.0021960911     1     9     6     4
 -0.0002893810     1     9     6    10
 -0.0000000018     1     9     7     1
 0.3418894401     1     9     7     2
 -0.0184659917     1     9     7     4
 0.0024332805     1     9     7    10
 -0.5235922416     1     9     9     1
 -0.0000000004     1     9     9     2
 0.0187027737     1     9     9     3
 -0.0019061497     1     9     9     5
 0.0047687511     1     9     9    11
 -0.0000011028     1     9    10     6
 0.0000092730     1     9    10     7
 0.0004867632     1     9    10    12
 -0.0000594667     1     9    10    13
 0.0000000010     1     9    12     1
 -0.2058424103     1     9    12     2
 0.0159412225     1     9    12     4
 -0.0015191315     1     9    12    10
 -0.0000000001     1     9    13     1
 0.0251473120     1     9    13     2
 -0.0019475039     1     9    13     4
 0.0001855890     1     9    13    10
 0.0020951136     1    10     2     1
 0.0000000001     1    10     2     2
 0.0000015781     1    10     2     3
 0.0000467605     1    10     2     5
 0.0000511889     1    10     2    11
 -0.0000000001     1    10     3     1
 0.0184712598     1    10     3     2
 0.0008458864     1    10     3     4
 0.0208431535     1    10     4     1
 0.0018873710     1    10     4     3
 0.0000114206     1    10     4     5
 0.0065817735     1    10     4    11
 -0.0000000017     1    10     5     1
 0.3347871071     1    10     5     2
 -0.0184261643     1    10     5     4
 -0.0024332805     1    10     6     8
 0.0002893810     1    10     6     9
 -0.0002893810     1    10     7     8
 -0.0024332805     1    10     7     9
 0.0000000004     1    10     8     2
 -0.0024240075     1    10     8     6
 -0.0002882782     1    10     8     7
 0.0002450557     1    10     8    12
 0.0020058947     1    10     8    13
 0.0002882782     1    10     9     6
 -0.0024240075     1    10     9     7
 0.0020058947     1    10     9    12
 -0.0002450557     1    10     9    13
 -0.5410237641     1    10    10     1
 0.0194854950     1    10    10     3
 -0.0041386031     1    10    10     5
 0.0025971060     1    10    10    11
 -0.0000000012     1    10    11     1
 0.2247755299     1    10    11     2
 -0.0155321396     1    10    11     4
 0.0001855890     1    10    12     8
 0.0015191315     1    10    12     9
 0.0000000001     1    10    13     1
 0.0015191315     1    10    13     8
 -0.0001855890     1    10    13     9
 0.0021613579     1    11     2     2
 -0.0000033064     1    11     2     4
 -0.0000511889     1    11     2    10
 -0.0785832635     1    11     3     1
 0.0017020818     1    11     3     3
 0.0065485461     1    11     3     5
 0.0000000004     1    11     4     1
 -0.0771599346     1    11     4     2
 -0.0000320173     1    11     4     4
 -0.0065817735     1    11     4    10
 -0.1680083871     1    11     5     1
 0.0202918142     1    11     5     3
 -0.0033311666     1    11     5     5
 -0.0000000001     1    11     6     2
 -0.0041030800     1    11     6     6
 0.0000220699     1    11     6    12
 0.0069073988     1    11     6    13
 -0.0041030800     1    11     7     7
 0.0069073988     1    11     7    12
 -0.0000220699     1    11     7    13
 -0.0000000001     1    11     8     1
 -0.0047687511     1    11     8     8
 -0.0047687511     1    11     9     9
 -0.0000000012     1    11    10     1
 0.2247243410     1    11    10     2
 -0.0221139131     1    11    10     4
 -0.0025971060     1    11    10    10
 -0.5316535927     1    11    11     1
 0.0167065178     1    11    11     3
 -0.0105305630     1    11    11     5
 0.0000248535     1    11    12     6
 0.0077785882     1    11    12     7
 -0.0087824688     1    11    12    12
 0.0077785882     1    11    13     6
 -0.0000248535     1    11    13     7
 -0.0087824688     1    11    13    13
 0.0000032314     1    12     2     8
 0.0000264509     1    12     2     9
 -0.0000239285     1    12     3     6
 -0.0074890697     1    12     3     7
 0.0000000001     1    12     4     7
 0.0009023657     1    12     4     8
 0.0073862814     1    12     4     9
 -0.0000004097     1    12     5     6
 -0.0001282178     1    12     5     7
 0.0006514162     1    12     6     1
 -0.0000732131     1    12     6     3
 0.0000031799     1    12     6     5
 -0.0000220699     1    12     6    11
 0.2038785961     1    12     7     1
 -0.0000000002     1    12     7     2
 -0.0229140509     1    12     7     3
 0.0000000001     1    12     7     4
 0.0009952516     1    12     7     5
 -0.0069073988     1    12     7    11
 0.0000000002     1    12     8     1
 -0.0251440806     1    12     8     2
 0.0028498696     1    12     8     4
 -0.0002450557     1    12     8    10
 0.0000000010     1    12     9     1
 -0.2058159594     1    12     9     2
 0.0233275039     1    12     9     4
 -0.0020058947     1    12     9    10
 -0.0000594667     1    12    10     8
 -0.0004867632     1    12    10     9
 0.0000027836     1    12    11     6
 0.0008711894     1    12    11     7
 -0.5083657346     1    12    12     1
 0.0000000001     1    12    12     2
 0.0198230940     1    12    12     3
 -0.0024274496     1    12    12     5
 0.0087824688     1    12    12    11
 0.0000264509     1    13     2     8
 -0.0000032314     1    13     2     9
 -0.0074890697     1    13     3     6
 0.0000239285     1    13     3     7
 -0.0000000001     1    13     3     8
 0.0073862814     1    13     4     8
 -0.0009023657     1    13     4     9
 0.0000000001     1    13     5     2
 -0.0001282178     1    13     5     6
 0.0000004097     1    13     5     7
 0.2038785961     1    13     6     1
 0.0000000002     1    13     6     2
 -0.0229140509     1    13     6     3
 0.0009952516     1    13     6     5
 -0.0069073988     1    13     6    11
 -0.0006514162     1    13     7     1
 0.0000732131     1    13     7     3
 -0.0000031799     1    13     7     5
 0.0000220699     1    13     7    11
 0.0000000012     1    13     8     1
 -0.2058159594     1    13     8     2
 -0.0000000001     1    13     8     3
 0.0233275039     1    13     8     4
 -0.0020058947     1    13     8    10
 -0.0000000001     1    13     9     1
 0.0251440806     1    13     9     2
 -0.0028498696     1    13     9     4
 0.0002450557     1    13     9    10
 0.0000000001     1    13    10     1
 -0.0004867632     1    13    10     8
 0.0000594667     1    13    10     9
 0.0008711894     1    13    11     6
 -0.0000027836     1    13    11     7
 -0.5083657346     1    13    13     1
 -0.0000000001     1    13    13     2
 0.0198230940     1    13    13     3
 -0.0024274496     1    13    13     5
 0.0087824688     1    13    13    11
 -0.1790994148     2     1     1     2
 0.0001094835     2     1     1     4
 0.0020951136     2     1     1    10
 -0.0000365362     2     1     3     2
 0.3698288597     2     1     3     4
 -0.0184696817     2     1     3    10
 0.3698287793     2     1     4     3
 -0.0452581713     2     1     4     5
 0.0771566282     2     1     4    11
 -0.0019974069     2     1     5     2
 -0.0452550908     2     1     5     4
 0.0000000004     2     1     5     6
 -0.3347403466     2     1     5    10
 -0.0000000001     2     1     5    13
 0.0000000004     2     1     6     5
 0.0000000005     2     1     6     6
 0.0000000001     2     1     6     7
 -0.3418659467     2     1     6     8
 0.0406568345     2     1     6     9
 0.0000000001     2     1     6    11
 -0.0000000002     2     1     6    13
 0.0000000001     2     1     7     6
 -0.0000000004     2     1     7     7
 -0.0406568345     2     1     7     8
 -0.3418659467     2     1     7     9
 0.0000000002     2     1     7    12
 -0.3418894401     2     1     8     6
 -0.0406596285     2     1     8     7
 -0.0000000004     2     1     8     8
 -0.0000000004     2     1     8    10
 0.0251473120     2     1     8    12
 0.2058424103     2     1     8    13
 0.0406596285     2     1     9     6
 -0.3418894401     2     1     9     7
 0.0000000004     2     1     9     9
 0.2058424103     2     1     9    12
 -0.0251473120     2     1     9    13
 -0.0000000001     2     1    10     2
 -0.0184712598     2     1    10     3
 -0.3347871071     2     1    10     5
 -0.0000000004     2     1    10     8
 -0.2247755299     2     1    10    11
 -0.0021613579     2     1    11     2
 0.0771599346     2     1    11     4
 0.0000000001     2     1    11     6
 -0.2247243410     2     1    11    10
 0.0000000002     2     1    12     7
 0.0251440806     2     1    12     8
 0.2058159594     2     1    12     9
 -0.0000000001     2     1    12    12
 -0.0000000001     2     1    13     5
 -0.0000000002     2     1    13     6
 0.2058159594     2     1    13     8
 -0.0251440806     2     1    13     9
 0.0000000001     2     1    13    13
 0.1790994148     2     2     1     1
 0.0000365362     2     2     1     3
 0.0019974069     2     2     1     5
 0.0000000001     2     2     1    10
 0.0021613579     2     2     1    11
 0.0000365362     2     2     3     1
 0.5466844682     2     2     3     3
 0.0000000019     2     2     3     4
 0.0019975073     2     2     3     5
 -0.0000000001     2     2     3    10
 0.0785863361     2     2     3    11
 0.0000000019     2     2     4     3
 0.5512273085     2     2     4     4
 -0.0000000003     2     2     4     5
 -0.0208479523     2     2     4    10
 0.0000000004     2     2     4    11
 0.0019974069     2     2     5     1
 0.0019975073     2     2     5     3
 -0.0000000003     2     2     5     4
 0.5086990789     2     2     5     5
 -0.0000000017     2     2     5    10
 0.1680567322     2     2     5    11
 0.5168889193     2     2     6     6
 -0.0000000018     2     2     6     8
 0.0000000002     2     2     6     9
 -0.0006515017     2     2     6    12
 -0.2039053534     2     2     6    13
 0.5168889193     2     2     7     7
 -0.0000000002     2     2     7     8
 -0.0000000018     2     2     7     9
 -0.2039053534     2     2     7    12
 0.0006515017     2     2     7    13
 -0.0000000018     2     2     8     6
 -0.0000000002     2     2     8     7
 0.5235688542     2     2     8     8
 0.0000000001     2     2     8    11
 0.0000000001     2     2     8    12
 0.0000000010     2     2     8    13
 0.0000000002     2     2     9     6
 -0.0000000018     2     2     9     7
 0.5235688542     2     2     9     9
 0.0000000012     2     2     9    12
 -0.0000000002     2     2     9    13
 0.0000000001     2     2    10     1
 -0.0000000001     2     2    10     3
 -0.0208479523     2     2    10     4
 -0.0000000017     2     2    10     5
 0.5409741009     2     2    10    10
 -0.0000000012     2     2    10    11
 -0.0000000001     2     2    10    13
 0.0021613579     2     2    11     1
 0.0785863361     2     2    11     3
 0.0000000004     2     2    11     4
 0.1680567322     2     2    11     5
 0.0000000001     2     2    11     8
 -0.0000000012     2     2    11    10
 0.5317072925     2     2    11    11
 -0.0006515017     2     2    12     6
 -0.2039053534     2     2    12     7
 0.0000000001     2     2    12     8
 0.0000000012     2     2    12     9
 0.5083957250     2     2    12    12
 -0.2039053534     2     2    13     6
 0.0006515017     2     2    13     7
 0.0000000010     2     2    13     8
 -0.0000000002     2     2    13     9
 -0.0000000001     2     2    13    10
 0.5083957250     2     2    13    13
 -0.0000365362     2     3     1     2
 0.0000000804     2     3     1     4
 0.0000015781     2     3     1    10
 -0.5466844682     2     3     3     2
 0.0000145000     2     3     3     4
 0.0013837700     2     3     3    10
 -0.3698287793     2     3     4     1
 -0.0000000019     2     3     4     2
 0.0018551048     2     3     4     5
 0.0016983506     2     3     4    11
 -0.0019975073     2     3     5     2
 0.0010041155     2     3     5     4
 0.0188968960     2     3     5    10
 -0.0000000001     2     3     6     6
 0.0186287529     2     3     6     8
 -0.0022154477     2     3     6     9
 0.0000000001     2     3     6    13
 0.0022154477     2     3     7     8
 0.0186287529     2     3     7     9
 0.0182625215     2     3     8     6
 0.0021718932     2     3     8     7
 -0.0027786788     2     3     8    12
 -0.0227447737     2     3     8    13
 -0.0021718932     2     3     9     6
 0.0182625215     2     3     9     7
 -0.0000000001     2     3     9     9
 -0.0227447737     2     3     9    12
 0.0027786788     2     3     9    13
 0.0184712598     2     3    10     1
 0.0000000001     2     3    10     2
 0.0178677498     2     3    10     5
 0.0210631931     2     3    10    11
 -0.0785863361     2     3    11     2
 0.0007879843     2     3    11     4
 0.0150493806     2     3    11    10
 -0.0019062787     2     3    12     8
 -0.0156037744     2     3    12     9
 -0.0156037744     2     3    13     8
 0.0019062787     2     3    13     9
 -0.0001094835     2     4     1     1
 -0.0000000804     2     4     1     3
 -0.0000030805     2     4     1     5
 -0.0000033064     2     4     1    11
 -0.3698288597     2     4     3     1
 -0.0000000019     2     4     3     2
 -0.0000145000     2     4     3     3
 0.0008509893     2     4     3     5
 0.0009103663     2     4     3    11
 -0.5512273085     2     4     4     2
 0.0000872239     2     4     4    10
 0.0452550908     2     4     5     1
 0.0000000003     2     4     5     2
 -0.0010041155     2     4     5     3
 -0.0169052683     2     4     5     5
 -0.0200736294     2     4     5    11
 -0.0183627324     2     4     6     6
 0.0000729721     2     4     6    12
 0.0228386062     2     4     6    13
 -0.0183627324     2     4     7     7
 0.0228386062     2     4     7    12
 -0.0000729721     2     4     7    13
 -0.0192508408     2     4     8     8
 -0.0192508408     2     4     9     9
 -0.0000000001     2     4     9    12
 0.0208479523     2     4    10     2
 -0.0203709728     2     4    10    10
 -0.0771599346     2     4    11     1
 -0.0000000004     2     4    11     2
 -0.0007879843     2     4    11     3
 -0.0140428909     2     4    11     5
 -0.0176825880     2     4    11    11
 0.0000503875     2     4    12     6
 0.0157701295     2     4    12     7
 -0.0203175116     2     4    12    12
 0.0157701295     2     4    13     6
 -0.0000503875     2     4    13     7
 -0.0203175116     2     4    13    13
 -0.0019974069     2     5     1     2
 0.0000030805     2     5     1     4
 0.0000467605     2     5     1    10
 -0.0019975073     2     5     3     2
 -0.0008509893     2     5     3     4
 0.0010291462     2     5     3    10
 0.0452581713     2     5     4     1
 0.0000000003     2     5     4     2
 -0.0018551048     2     5     4     3
 -0.0060307385     2     5     4    11
 -0.5086990789     2     5     5     2
 0.0169052683     2     5     5     4
 0.0005742898     2     5     5    10
 -0.0000000004     2     5     6     1
 0.0001046360     2     5     6     8
 -0.0000124439     2     5     6     9
 0.0000124439     2     5     7     8
 0.0001046360     2     5     7     9
 -0.0001251762     2     5     8     6
 -0.0000148868     2     5     8     7
 0.0001441518     2     5     8    12
 0.0011799494     2     5     8    13
 0.0000148868     2     5     9     6
 -0.0001251762     2     5     9     7
 0.0011799494     2     5     9    12
 -0.0001441518     2     5     9    13
 0.3347871071     2     5    10     1
 0.0000000017     2     5    10     2
 -0.0178677498     2     5    10     3
 -0.0067343397     2     5    10    11
 -0.1680567322     2     5    11     2
 0.0140428909     2     5    11     4
 -0.0026401311     2     5    11    10
 0.0001255460     2     5    12     8
 0.0010276517     2     5    12     9
 0.0000000001     2     5    13     1
 0.0010276517     2     5    13     8
 -0.0001255460     2     5    13     9
 0.0000234934     2     6     1     8
 -0.0000027940     2     6     1     9
 0.0003662314     2     6     3     8
 -0.0000435545     2     6     3     9
 0.0000000001     2     6     3    13
 0.0000225846     2     6     4    12
 0.0070684767     2     6     4    13
 -0.0000000004     2     6     5     1
 0.0002298122     2     6     5     8
 -0.0000273307     2     6     5     9
 -0.0000000005     2     6     6     1
 -0.5168889193     2     6     6     2
 0.0000000001     2     6     6     3
 0.0183627324     2     6     6     4
 -0.0003030542     2     6     6    10