&FCI NORB=  6,NELEC=  6,MS2=0,
 ORBSYM=1,1,1,1,1,1
 ISYM=1,
&END
 0.4101895362     1     1     2     2
 -0.0000000010     1     1     2     4
 0.0000000002     1     1     2     5
 0.4101895362     1     1     3     3
 -0.0000000002     1     1     3     4
 -0.0000000010     1     1     3     5
 -0.0000000010     1     1     4     2
 -0.0000000002     1     1     4     3
 0.4048594335     1     1     4     4
 0.0000000002     1     1     5     2
 -0.0000000010     1     1     5     3
 0.4048594335     1     1     5     5
 0.2754539607     1     1     6     6
 -0.4101895362     1     2     2     1
 -0.0000000015     1     2     2     6
 0.0000000010     1     2     4     1
 0.1521825547     1     2     4     6
 -0.0000000002     1     2     5     1
 -0.0344379281     1     2     5     6
 -0.0022825836     1     2     6     4
 0.0005165339     1     2     6     5
 -0.4101895362     1     3     3     1
 -0.0000000015     1     3     3     6
 0.0000000002     1     3     4     1
 0.0344379281     1     3     4     6
 0.0000000010     1     3     5     1
 0.1521825547     1     3     5     6
 -0.0005165339     1     3     6     4
 -0.0022825836     1     3     6     5
 0.0000000010     1     4     2     1
 0.1464148315     1     4     2     6
 0.0000000002     1     4     3     1
 0.0331327297     1     4     3     6
 -0.4048594335     1     4     4     1
 0.0000000011     1     4     4     6
 0.0022825836     1     4     6     2
 0.0005165339     1     4     6     3
 -0.0000000002     1     5     2     1
 -0.0331327297     1     5     2     6
 0.0000000010     1     5     3     1
 0.1464148315     1     5     3     6
 -0.4048594335     1     5     5     1
 0.0000000011     1     5     5     6
 -0.0005165339     1     5     6     2
 0.0022825836     1     5     6     3
 0.0000000015     1     6     2     2
 -0.1464148315     1     6     2     4
 0.0331327297     1     6     2     5
 0.0000000015     1     6     3     3
 -0.0331327297     1     6     3     4
 -0.1464148315     1     6     3     5
 -0.1521825547     1     6     4     2
 -0.0344379281     1     6     4     3
 -0.0000000011     1     6     4     4
 0.0344379281     1     6     5     2
 -0.1521825547     1     6     5     3
 -0.0000000011     1     6     5     5
 -0.2754539607     1     6     6     1
 -0.4101895362     2     1     1     2
 0.0000000010     2     1     1     4
 -0.0000000002     2     1     1     5
 -0.0022825836     2     1     4     6
 0.0005165339     2     1     5     6
 -0.0000000015     2     1     6     2
 0.1521825547     2     1     6     4
 -0.0344379281     2     1     6     5
 0.4101895362     2     2     1     1
 0.0000000015     2     2     1     6
 0.4067860327     2     2     3     3
 -0.0000000004     2     2     3     4
 -0.0000000016     2     2     3     5
 -0.0000000004     2     2     4     3
 0.2440072680     2     2     4     4
 0.0354729876     2     2     4     5
 -0.0000000016     2     2     5     3
 0.0354729876     2     2     5     4
 0.3927364830     2     2     5     5
 0.0000000015     2     2     6     1
 0.4150428070     2     2     6     6
 -0.4067860327     2     3     3     2
 0.0000000016     2     3     3     4
 -0.0000000004     2     3     3     5
 0.0000000004     2     3     4     2
 -0.0354729876     2     3     4     4
 0.0091907399     2     3     4     5
 0.0000000016     2     3     5     2
 -0.1579199551     2     3     5     4
 0.0354729876     2     3     5     5
 -0.0000000010     2     4     1     1
 -0.1464148315     2     4     1     6
 0.0000000004     2     4     3     2
 -0.0000000016     2     4     3     3
 0.1590852576     2     4     3     5
 -0.2440072680     2     4     4     2
 0.0354729876     2     4     4     3
 0.0000000003     2     4     4     5
 -0.0354729876     2     4     5     2
 0.1579199551     2     4     5     3
 0.0000000013     2     4     5     5
 -0.1521825547     2     4     6     1
 0.0000000007     2     4     6     6
 0.0000000002     2     5     1     1
 0.0331327297     2     5     1     6
 0.0000000016     2     5     3     2
 0.0000000004     2     5     3     3
 -0.1590852576     2     5     3     4
 -0.0354729876     2     5     4     2
 -0.0091907399     2     5     4     3
 -0.0000000003     2     5     4     4
 -0.3927364830     2     5     5     2
 -0.0354729876     2     5     5     3
 -0.0000000013     2     5     5     4
 0.0344379281     2     5     6     1
 -0.0000000002     2     5     6     6
 -0.0000000015     2     6     1     2
 0.1464148315     2     6     1     4
 -0.0331327297     2     6     1     5
 0.0022825836     2     6     4     1
 -0.0005165339     2     6     5     1
 -0.4150428070     2     6     6     2
 -0.0000000007     2     6     6     4
 0.0000000002     2     6     6     5
 -0.4101895362     3     1     1     3
 0.0000000002     3     1     1     4
 0.0000000010     3     1     1     5
 -0.0005165339     3     1     4     6
 -0.0022825836     3     1     5     6
 -0.0000000015     3     1     6     3
 0.0344379281     3     1     6     4
 0.1521825547     3     1     6     5
 -0.4067860327     3     2     2     3
 0.0000000004     3     2     2     4
 0.0000000016     3     2     2     5
 0.0000000016     3     2     4     3
 -0.0354729876     3     2     4     4
 -0.1579199551     3     2     4     5
 -0.0000000004     3     2     5     3
 0.0091907399     3     2     5     4
 0.0354729876     3     2     5     5
 0.4101895362     3     3     1     1
 0.0000000015     3     3     1     6
 0.4067860327     3     3     2     2
 -0.0000000016     3     3     2     4
 0.0000000004     3     3     2     5
 -0.0000000016     3     3     4     2
 0.3927364830     3     3     4     4
 -0.0354729876     3     3     4     5
 0.0000000004     3     3     5     2
 -0.0354729876     3     3     5     4
 0.2440072680     3     3     5     5
 0.0000000015     3     3     6     1
 0.4150428070     3     3     6     6
 -0.0000000002     3     4     1     1
 -0.0331327297     3     4     1     6
 -0.0000000004     3     4     2     2
 0.0000000016     3     4     2     3
 -0.1590852576     3     4     2     5
 0.0354729876     3     4     4     2
 -0.3927364830     3     4     4     3
 -0.0000000013     3     4     4     5
 -0.0091907399     3     4     5     2
 0.0354729876     3     4     5     3
 0.0000000003     3     4     5     5
 -0.0344379281     3     4     6     1
 0.0000000002     3     4     6     6
 -0.0000000010     3     5     1     1
 -0.1464148315     3     5     1     6
 -0.0000000016     3     5     2     2
 -0.0000000004     3     5     2     3
 0.1590852576     3     5     2     4
 0.1579199551     3     5     4     2
 0.0354729876     3     5     4     3
 0.0000000013     3     5     4     4
 -0.0354729876     3     5     5     2
 -0.2440072680     3     5     5     3
 -0.0000000003     3     5     5     4
 -0.1521825547     3     5     6     1
 0.0000000007     3     5     6     6
 -0.0000000015     3     6     1     3
 0.0331327297     3     6     1     4
 0.1464148315     3     6     1     5
 0.0005165339     3     6     4     1
 0.0022825836     3     6     5     1
 -0.4150428070     3     6     6     3
 -0.0000000002     3     6     6     4
 -0.0000000007     3     6     6     5
 0.0000000010     4     1     1     2
 0.0000000002     4     1     1     3
 -0.4048594335     4     1     1     4
 0.0022825836     4     1     2     6
 0.0005165339     4     1     3     6
 0.1464148315     4     1     6     2
 0.0331327297     4     1     6     3
 0.0000000011     4     1     6     4
 -0.0000000010     4     2     1     1
 -0.1521825547     4     2     1     6
 0.0000000004     4     2     2     3
 -0.2440072680     4     2     2     4
 -0.0354729876     4     2     2     5
 -0.0000000016     4     2     3     3
 0.0354729876     4     2     3     4
 0.1579199551     4     2     3     5
 0.1590852576     4     2     5     3
 0.0000000003     4     2     5     4
 0.0000000013     4     2     5     5
 -0.1464148315     4     2     6     1
 0.0000000007     4     2     6     6
 -0.0000000002     4     3     1     1
 -0.0344379281     4     3     1     6
 -0.0000000004     4     3     2     2
 0.0354729876     4     3     2     4
 -0.0091907399     4     3     2     5
 0.0000000016     4     3     3     2
 -0.3927364830     4     3     3     4
 0.0354729876     4     3     3     5
 -0.1590852576     4     3     5     2
 -0.0000000013     4     3     5     4
 0.0000000003     4     3     5     5
 -0.0331327297     4     3     6     1
 0.0000000002     4     3     6     6
 0.4048594335     4     4     1     1
 -0.0000000011     4     4     1     6
 0.2440072680     4     4     2     2
 -0.0354729876     4     4     2     3
 -0.0000000003     4     4     2     5
 -0.0354729876     4     4     3     2
 0.3927364830     4     4     3     3
 0.0000000013     4     4     3     5
 -0.0000000003     4     4     5     2
 0.0000000013     4     4     5     3
 0.3912378090     4     4     5     5
 -0.0000000011     4     4     6     1
 0.4038186635     4     4     6     6
 0.0354729876     4     5     2     2
 0.0091907399     4     5     2     3
 0.0000000003     4     5     2     4
 -0.1579199551     4     5     3     2
 -0.0354729876     4     5     3     3
 -0.0000000013     4     5     3     4
 -0.0000000013     4     5     5     2
 -0.0000000003     4     5     5     3
 -0.3912378090     4     5     5     4
 0.1521825547     4     6     1     2
 0.0344379281     4     6     1     3
 0.0000000011     4     6     1     4
 -0.0022825836     4     6     2     1
 -0.0005165339     4     6     3     1
 -0.0000000007     4     6     6     2
 -0.0000000002     4     6     6     3
 -0.4038186635     4     6     6     4
 -0.0000000002     5     1     1     2
 0.0000000010     5     1     1     3
 -0.4048594335     5     1     1     5
 -0.0005165339     5     1     2     6
 0.0022825836     5     1     3     6
 -0.0331327297     5     1     6     2
 0.1464148315     5     1     6     3
 0.0000000011     5     1     6     5
 0.0000000002     5     2     1     1
 0.0344379281     5     2     1     6
 0.0000000016     5     2     2     3
 -0.0354729876     5     2     2     4
 -0.3927364830     5     2     2     5
 0.0000000004     5     2     3     3
 -0.0091907399     5     2     3     4
 -0.0354729876     5     2     3     5
 -0.1590852576     5     2     4     3
 -0.0000000003     5     2     4     4
 -0.0000000013     5     2     4     5
 0.0331327297     5     2     6     1
 -0.0000000002     5     2     6     6
 -0.0000000010     5     3     1     1
 -0.1521825547     5     3     1     6
 -0.0000000016     5     3     2     2
 0.1579199551     5     3     2     4
 -0.0354729876     5     3     2     5
 -0.0000000004     5     3     3     2
 0.0354729876     5     3     3     4
 -0.2440072680     5     3     3     5
 0.1590852576     5     3     4     2
 0.0000000013     5     3     4     4
 -0.0000000003     5     3     4     5
 -0.1464148315     5     3     6     1
 0.0000000007     5     3     6     6
 0.0354729876     5     4     2     2
 -0.1579199551     5     4     2     3
 -0.0000000013     5     4     2     5
 0.0091907399     5     4     3     2
 -0.0354729876     5     4     3     3
 -0.0000000003     5     4     3     5
 0.0000000003     5     4     4     2
 -0.0000000013     5     4     4     3
 -0.3912378090     5     4     4     5
 0.4048594335     5     5     1     1
 -0.0000000011     5     5     1     6
 0.3927364830     5     5     2     2
 0.0354729876     5     5     2     3
 0.0000000013     5     5     2     4
 0.0354729876     5     5     3     2
 0.2440072680     5     5     3     3
 0.0000000003     5     5     3     4
 0.0000000013     5     5     4     2
 0.0000000003     5     5     4     3
 0.3912378090     5     5     4     4
 -0.0000000011     5     5     6     1
 0.4038186635     5     5     6     6
 -0.0344379281     5     6     1     2
 0.1521825547     5     6     1     3
 0.0000000011     5     6     1     5
 0.0005165339     5     6     2     1
 -0.0022825836     5     6     3     1
 0.0000000002     5     6     6     2
 -0.0000000007     5     6     6     3
 -0.4038186635     5     6     6     5
 -0.2754539607     6     1     1     6
 0.0000000015     6     1     2     2
 -0.1521825547     6     1     2     4
 0.0344379281     6     1     2     5
 0.0000000015     6     1     3     3
 -0.0344379281     6     1     3     4
 -0.1521825547     6     1     3     5
 -0.1464148315     6     1     4     2
 -0.0331327297     6     1     4     3
 -0.0000000011     6     1     4     4
 0.0331327297     6     1     5     2
 -0.1464148315     6     1     5     3
 -0.0000000011     6     1     5     5
 0.0022825836     6     2     1     4
 -0.0005165339     6     2     1     5
 -0.0000000015     6     2     2     1
 -0.4150428070     6     2     2     6
 0.1464148315     6     2     4     1
 -0.0000000007     6     2     4     6
 -0.0331327297     6     2     5     1
 0.0000000002     6     2     5     6
 0.0005165339     6     3     1     4
 0.0022825836     6     3     1     5
 -0.0000000015     6     3     3     1
 -0.4150428070     6     3     3     6
 0.0331327297     6     3     4     1
 -0.0000000002     6     3     4     6
 0.1464148315     6     3     5     1
 -0.0000000007     6     3     5     6
 -0.0022825836     6     4     1     2
 -0.0005165339     6     4     1     3
 0.1521825547     6     4     2     1
 -0.0000000007     6     4     2     6
 0.0344379281     6     4     3     1
 -0.0000000002     6     4     3     6
 0.0000000011     6     4     4     1
 -0.4038186635     6     4     4     6
 0.0005165339     6     5     1     2
 -0.0022825836     6     5     1     3
 -0.0344379281     6     5     2     1
 0.0000000002     6     5     2     6
 0.1521825547     6     5     3     1
 -0.0000000007     6     5     3     6
 0.0000000011     6     5     5     1
 -0.4038186635     6     5     5     6
 0.2754539607     6     6     1     1
 0.4150428070     6     6     2     2
 0.0000000007     6     6     2     4
 -0.0000000002     6     6     2     5
 0.4150428070     6     6     3     3
 0.0000000002     6     6     3     4
 0.0000000007     6     6     3     5
 0.0000000007     6     6     4     2
 0.0000000002     6     6     4     3
 0.4038186635     6     6     4     4
 -0.0000000002     6     6     5     2
 0.0000000007     6     6     5     3
 0.4038186635     6     6     5     5
0.0 0 0 0 0
 0.4101895362     1     1     2     2
 -0.0000000010     1     1     2     4
 0.0000000002     1     1     2     5
 0.4101895362     1     1     3     3
 -0.0000000002     1     1     3     4
 -0.0000000010     1     1     3     5
 -0.0000000010     1     1     4     2
 -0.0000000002     1     1     4     3
 0.4048594335     1     1     4     4
 0.0000000002     1     1     5     2
 -0.0000000010     1     1     5     3
 0.4048594335     1     1     5     5
 0.2754539607     1     1     6     6
 -0.4101895362     1     2     2     1
 -0.0000000015     1     2     2     6
 0.0000000010     1     2     4     1
 0.1521825547     1     2     4     6
 -0.0000000002     1     2     5     1
 -0.0344379281     1     2     5     6
 -0.0022825836     1     2     6     4
 0.0005165339     1     2     6     5
 -0.4101895362     1     3     3     1
 -0.0000000015     1     3     3     6
 0.0000000002     1     3     4     1
 0.0344379281     1     3     4     6
 0.0000000010     1     3     5     1
 0.1521825547     1     3     5     6
 -0.0005165339     1     3     6     4
 -0.0022825836     1     3     6     5
 0.0000000010     1     4     2     1
 0.1464148315     1     4     2     6
 0.0000000002     1     4     3     1
 0.0331327297     1     4     3     6
 -0.4048594335     1     4     4     1
 0.0000000011     1     4     4     6
 0.0022825836     1     4     6     2
 0.0005165339     1     4     6     3
 -0.0000000002     1     5     2     1
 -0.0331327297     1     5     2     6
 0.0000000010     1     5     3     1
 0.1464148315     1     5     3     6
 -0.4048594335     1     5     5     1
 0.0000000011     1     5     5     6
 -0.0005165339     1     5     6     2
 0.0022825836     1     5     6     3
 0.0000000015     1     6     2     2
 -0.1464148315     1     6     2     4
 0.0331327297     1     6     2     5
 0.0000000015     1     6     3     3
 -0.0331327297     1     6     3     4
 -0.1464148315     1     6     3     5
 -0.1521825547     1     6     4     2
 -0.0344379281     1     6     4     3
 -0.0000000011     1     6     4     4
 0.0344379281     1     6     5     2
 -0.1521825547     1     6     5     3
 -0.0000000011     1     6     5     5
 -0.2754539607     1     6     6     1
 -0.4101895362     2     1     1     2
 0.0000000010     2     1     1     4
 -0.0000000002     2     1     1     5
 -0.0022825836     2     1     4     6
 0.0005165339     2     1     5     6
 -0.0000000015     2     1     6     2
 0.1521825547     2     1     6     4
 -0.0344379281     2     1     6     5
 0.4101895362     2     2     1     1
 0.0000000015     2     2     1     6
 0.4067860327     2     2     3     3
 -0.0000000004     2     2     3     4
 -0.0000000016     2     2     3     5
 -0.0000000004     2     2     4     3
 0.2440072680     2     2     4     4
 0.0354729876     2     2     4     5
 -0.0000000016     2     2     5     3
 0.0354729876     2     2     5     4
 0.3927364830     2     2     5     5
 0.0000000015     2     2     6     1
 0.4150428070     2     2     6     6
 -0.4067860327     2     3     3     2
 0.0000000016     2     3     3     4
 -0.0000000004     2     3     3     5
 0.0000000004     2     3     4     2
 -0.0354729876     2     3     4     4
 0.0091907399     2     3     4     5
 0.0000000016     2     3     5     2
 -0.1579199551     2     3     5     4
 0.0354729876     2     3     5     5
 -0.0000000010     2     4     1     1
 -0.1464148315     2     4     1     6
 0.0000000004     2     4     3     2
 -0.0000000016     2     4     3     3
 0.1590852576     2     4     3     5
 -0.2440072680     2     4     4     2
 0.0354729876     2     4     4     3
 0.0000000003     2     4     4     5
 -0.0354729876     2     4     5     2
 0.1579199551     2     4     5     3
 0.0000000013     2     4     5     5
 -0.1521825547     2     4     6     1
 0.0000000007     2     4     6     6
 0.0000000002     2     5     1     1
 0.0331327297     2     5     1     6
 0.0000000016     2     5     3     2
 0.0000000004     2     5     3     3
 -0.1590852576     2     5     3     4
 -0.0354729876     2     5     4     2
 -0.0091907399     2     5     4     3
 -0.0000000003     2     5     4     4
 -0.3927364830     2     5     5     2
 -0.0354729876     2     5     5     3
 -0.0000000013     2     5     5     4
 0.0344379281     2     5     6     1
 -0.0000000002     2     5     6     6
 -0.0000000015     2     6     1     2
 0.1464148315     2     6     1     4
 -0.0331327297     2     6     1     5
 0.0022825836     2     6     4     1
 -0.0005165339     2     6     5     1
 -0.4150428070     2     6     6     2
 -0.0000000007     2     6     6     4
 0.0000000002     2     6     6     5
 -0.4101895362     3     1     1     3
 0.0000000002     3     1     1     4
 0.0000000010     3     1     1     5
 -0.0005165339     3     1     4     6
 -0.0022825836     3     1     5     6
 -0.0000000015     3     1     6     3
 0.0344379281     3     1     6     4
 0.1521825547     3     1     6     5
 -0.4067860327     3     2     2     3
 0.0000000004     3     2     2     4
 0.0000000016     3     2     2     5
 0.0000000016     3     2     4     3
 -0.0354729876     3     2     4     4
 -0.1579199551     3     2     4     5
 -0.0000000004     3     2     5     3
 0.0091907399     3     2     5     4
 0.0354729876     3     2     5     5
 0.4101895362     3     3     1     1
 0.0000000015     3     3     1     6
 0.4067860327     3     3     2     2
 -0.0000000016     3     3     2     4
 0.0000000004     3     3     2     5
 -0.0000000016     3     3     4     2
 0.3927364830     3     3     4     4
 -0.0354729876     3     3     4     5
 0.0000000004     3     3     5     2
 -0.0354729876     3     3     5     4
 0.2440072680     3     3     5     5
 0.0000000015     3     3     6     1
 0.4150428070     3     3     6     6
 -0.0000000002     3     4     1     1
 -0.0331327297     3     4     1     6
 -0.0000000004     3     4     2     2
 0.0000000016     3     4     2     3
 -0.1590852576     3     4     2     5
 0.0354729876     3     4     4     2
 -0.3927364830     3     4     4     3
 -0.0000000013     3     4     4     5
 -0.0091907399     3     4     5     2
 0.0354729876     3     4     5     3
 0.0000000003     3     4     5     5
 -0.0344379281     3     4     6     1
 0.0000000002     3     4     6     6
 -0.0000000010     3     5     1     1
 -0.1464148315     3     5     1     6
 -0.0000000016     3     5     2     2
 -0.0000000004     3     5     2     3
 0.1590852576     3     5     2     4
 0.1579199551     3     5     4     2
 0.0354729876     3     5     4     3
 0.0000000013     3     5     4     4
 -0.0354729876     3     5     5     2
 -0.2440072680     3     5     5     3
 -0.0000000003     3     5     5     4
 -0.1521825547     3     5     6     1
 0.0000000007     3     5     6     6
 -0.0000000015     3     6     1     3
 0.0331327297     3     6     1     4
 0.1464148315     3     6     1     5
 0.0005165339     3     6     4     1
 0.0022825836     3     6     5     1
 -0.4150428070     3     6     6     3
 -0.0000000002     3     6     6     4
 -0.0000000007     3     6     6     5
 0.0000000010     4     1     1     2
 0.0000000002     4     1     1     3
 -0.4048594335     4     1     1     4
 0.0022825836     4     1     2     6
 0.0005165339     4     1     3     6
 0.1464148315     4     1     6     2
 0.0331327297     4     1     6     3
 0.0000000011     4     1     6     4
 -0.0000000010     4     2     1     1
 -0.1521825547     4     2     1     6
 0.0000000004     4     2     2     3
 -0.2440072680     4     2     2     4
 -0.0354729876     4     2     2     5
 -0.0000000016     4     2     3     3
 0.0354729876     4     2     3     4
 0.1579199551     4     2     3     5
 0.1590852576     4     2     5     3
 0.0000000003     4     2     5     4
 0.0000000013     4     2     5     5
 -0.1464148315     4     2     6     1
 0.0000000007     4     2     6     6
 -0.0000000002     4     3     1     1
 -0.0344379281     4     3     1     6
 -0.0000000004     4     3     2     2
 0.0354729876     4     3     2     4
 -0.0091907399     4     3     2     5
 0.0000000016     4     3     3     2
 -0.3927364830     4     3     3     4
 0.0354729876     4     3     3     5
 -0.1590852576     4     3     5     2
 -0.0000000013     4     3     5     4
 0.0000000003     4     3     5     5
 -0.0331327297     4     3     6     1
 0.0000000002     4     3     6     6
 0.4048594335     4     4     1     1
 -0.0000000011     4     4     1     6
 0.2440072680     4     4     2     2
 -0.0354729876     4     4     2     3
 -0.0000000003     4     4     2     5
 -0.0354729876     4     4     3     2
 0.3927364830     4     4     3     3
 0.0000000013     4     4     3     5
 -0.0000000003     4     4     5     2
 0.0000000013     4     4     5     3
 0.3912378090     4     4     5     5
 -0.0000000011     4     4     6     1
 0.4038186635     4     4     6     6
 0.0354729876     4     5     2     2
 0.0091907399     4     5     2     3
 0.0000000003     4     5     2     4
 -0.1579199551     4     5     3     2
 -0.0354729876     4     5     3     3
 -0.0000000013     4     5     3     4
 -0.0000000013     4     5     5     2
 -0.0000000003     4     5     5     3
 -0.3912378090     4     5     5     4
 0.1521825547     4     6     1     2
 0.0344379281     4     6     1     3
 0.0000000011     4     6     1     4
 -0.0022825836     4     6     2     1
 -0.0005165339     4     6     3     1
 -0.0000000007     4     6     6     2
 -0.0000000002     4     6     6     3
 -0.4038186635     4     6     6     4
 -0.0000000002     5     1     1     2
 0.0000000010     5     1     1     3
 -0.4048594335     5     1     1     5
 -0.0005165339     5     1     2     6
 0.0022825836     5     1     3     6
 -0.0331327297     5     1     6     2
 0.1464148315     5     1     6     3
 0.0000000011     5     1     6     5
 0.0000000002     5     2     1     1
 0.0344379281     5     2     1     6
 0.0000000016     5     2     2     3
 -0.0354729876     5     2     2     4
 -0.3927364830     5     2     2     5
 0.0000000004     5     2     3     3
 -0.0091907399     5     2     3     4
 -0.0354729876     5     2     3     5
 -0.1590852576     5     2     4     3
 -0.0000000003     5     2     4     4
 -0.0000000013     5     2     4     5
 0.0331327297     5     2     6     1
 -0.0000000002     5     2     6     6
 -0.0000000010     5     3     1     1
 -0.1521825547     5     3     1     6
 -0.0000000016     5     3     2     2
 0.1579199551     5     3     2     4
 -0.0354729876     5     3     2     5
 -0.0000000004     5     3     3     2
 0.0354729876     5     3     3     4
 -0.2440072680     5     3     3     5
 0.1590852576     5     3     4     2
 0.0000000013     5     3     4     4
 -0.0000000003     5     3     4     5
 -0.1464148315     5     3     6     1
 0.0000000007     5     3     6     6
 0.0354729876     5     4     2     2
 -0.1579199551     5     4     2     3
 -0.0000000013     5     4     2     5
 0.0091907399     5     4     3     2
 -0.0354729876     5     4     3     3
 -0.0000000003     5     4     3     5
 0.0000000003     5     4     4     2
 -0.0000000013     5     4     4     3
 -0.3912378090     5     4     4     5
 0.4048594335     5     5     1     1
 -0.0000000011     5     5     1     6
 0.3927364830     5     5     2     2
 0.0354729876     5     5     2     3
 0.0000000013     5     5     2     4
 0.0354729876     5     5     3     2
 0.2440072680     5     5     3     3
 0.0000000003     5     5     3     4
 0.0000000013     5     5     4     2
 0.0000000003     5     5     4     3
 0.3912378090     5     5     4     4
 -0.0000000011     5     5     6     1
 0.4038186635     5     5     6     6
 -0.0344379281     5     6     1     2
 0.1521825547     5     6     1     3
 0.0000000011     5     6     1     5
 0.0005165339     5     6     2     1
 -0.0022825836     5     6     3     1
 0.0000000002     5     6     6     2
 -0.0000000007     5     6     6     3
 -0.4038186635     5     6     6     5
 -0.2754539607     6     1     1     6
 0.0000000015     6     1     2     2
 -0.1521825547     6     1     2     4
 0.0344379281     6     1     2     5
 0.0000000015     6     1     3     3
 -0.0344379281     6     1     3     4
 -0.1521825547     6     1     3     5
 -0.1464148315     6     1     4     2
 -0.0331327297     6     1     4     3
 -0.0000000011     6     1     4     4
 0.0331327297     6     1     5     2
 -0.1464148315     6     1     5     3
 -0.0000000011     6     1     5     5
 0.0022825836     6     2     1     4
 -0.0005165339     6     2     1     5
 -0.0000000015     6     2     2     1
 -0.4150428070     6     2     2     6
 0.1464148315     6     2     4     1
 -0.0000000007     6     2     4     6
 -0.0331327297     6     2     5     1
 0.0000000002     6     2     5     6
 0.0005165339     6     3     1     4
 0.0022825836     6     3     1     5
 -0.0000000015     6     3     3     1
 -0.4150428070     6     3     3     6
 0.0331327297     6     3     4     1
 -0.0000000002     6     3     4     6
 0.1464148315     6     3     5     1
 -0.0000000007     6     3     5     6
 -0.0022825836     6     4     1     2
 -0.0005165339     6     4     1     3
 0.1521825547     6     4     2     1
 -0.0000000007     6     4     2     6
 0.0344379281     6     4     3     1
 -0.0000000002     6     4     3     6
 0.0000000011     6     4     4     1
 -0.4038186635     6     4     4     6
 0.0005165339     6     5     1     2
 -0.0022825836     6     5     1     3
 -0.0344379281     6     5     2     1
 0.0000000002     6     5     2     6
 0.1521825547     6     5     3     1
 -0.0000000007     6     5     3     6
 0.0000000011     6     5     5     1
 -0.4038186635     6     5     5     6
 0.2754539607     6     6     1     1
 0.4150428070     6     6     2     2
 0.0000000007     6     6     2     4
 -0.0000000002     6     6     2     5
 0.4150428070     6     6     3     3
 0.0000000002     6     6     3     4
 0.0000000007     6     6     3     5
 0.0000000007     6     6     4     2
 0.0000000002     6     6     4     3
 0.4038186635     6     6     4     4
 -0.0000000002     6     6     5     2
 0.0000000007     6     6     5     3
 0.4038186635     6     6     5     5
0.0 0 0 0 0
 0.4614012095     1     1     1     1
 0.0000000009     1     1     1     6
 0.4251140613     1     1     2     2
 -0.0000000010     1     1     2     4
 0.0000000002     1     1     2     5
 0.4251140613     1     1     3     3
 -0.0000000002     1     1     3     4
 -0.0000000010     1     1     3     5
 -0.0000000010     1     1     4     2
 -0.0000000002     1     1     4     3
 0.4261052986     1     1     4     4
 0.0000000002     1     1     5     2
 -0.0000000010     1     1     5     3
 0.4261052986     1     1     5     5
 0.0000000009     1     1     6     1
 0.4743119032     1     1     6     6
 0.0152765658     1     2     1     2
 0.0149245251     1     2     2     1
 0.0000000001     1     2     2     6
 -0.0140640795     1     2     4     6
 0.0031826103     1     2     5     6
 0.0000000001     1     2     6     2
 -0.0178594207     1     2     6     4
 0.0040414714     1     2     6     5
 0.0152765658     1     3     1     3
 0.0149245251     1     3     3     1
 0.0000000001     1     3     3     6
 -0.0031826103     1     3     4     6
 -0.0140640795     1     3     5     6
 0.0000000001     1     3     6     3
 -0.0040414714     1     3     6     4
 -0.0178594207     1     3     6     5
 0.0197550859     1     4     1     4