&FCI NORB= 10,NELEC=  6,MS2=0,
 ORBSYM=1,1,1,1,1,1,1,1,1,1
 ISYM=1,
&END
 0.2699080877     1     1     2     2
 0.0000000079     1     1     2     3
 0.0000000079     1     1     3     2
 0.2668094996     1     1     3     3
 0.2569173597     1     1     4     4
 0.0000000102     1     1     4     5
 0.0000000102     1     1     5     4
 0.2609492377     1     1     5     5
 0.1896856573     1     1     6     6
 -0.0000000505     1     1     6     9
 0.0072051675     1     1     6    10
 0.1851394853     1     1     7     7
 -0.0000000314     1     1     7     8
 -0.0000000314     1     1     8     7
 0.1752995698     1     1     8     8
 -0.0000000505     1     1     9     6
 0.1750881993     1     1     9     9
 0.0000000026     1     1     9    10
 0.0072051675     1     1    10     6
 0.0000000026     1     1    10     9
 0.1790237317     1     1    10    10
 -0.2699080877     1     2     2     1
 0.0008325416     1     2     2     6
 -0.0000000091     1     2     2     9
 -0.0209808627     1     2     2    10
 -0.0000000079     1     2     3     1
 -0.0000000021     1     2     3     6
 -0.0004301532     1     2     3     9
 -0.0000000046     1     2     3    10
 -0.0000000019     1     2     4     7
 0.0021171577     1     2     4     8
 -0.0039581819     1     2     5     7
 0.0000000039     1     2     5     8
 -0.0000000003     1     2     7     4
 -0.0002138745     1     2     7     5
 -0.0000884414     1     2     8     4
 0.0000000006     1     2     8     5
 0.0009258104     1     2     9     3
 -0.0000000006     1     2    10     3
 -0.0000000079     1     3     2     1
 -0.0000000022     1     3     2     6
 -0.0014677708     1     3     2     9
 -0.0000000039     1     3     2    10
 -0.2668094996     1     3     3     1
 -0.0009125689     1     3     3     6
 -0.0000000176     1     3     3     9
 -0.0190860565     1     3     3    10
 -0.0005222508     1     3     4     7
 0.0000000104     1     3     4     8
 -0.0000000047     1     3     5     7
 0.0013002411     1     3     5     8
 -0.0001945337     1     3     7     4
 0.0000000002     1     3     7     5
 0.0000000006     1     3     8     4
 0.0001043915     1     3     8     5
 -0.0009258104     1     3     9     2
 0.0000000006     1     3    10     2
 -0.0000000007     1     4     2     7
 0.0021519056     1     4     2     8
 -0.0000588389     1     4     3     7
 0.0000000079     1     4     3     8
 -0.2569173597     1     4     4     1
 -0.0003142566     1     4     4     6
 -0.0000000129     1     4     4     9
 -0.0175276929     1     4     4    10
 -0.0000000102     1     4     5     1
 -0.0000000008     1     4     5     6
 0.0005407619     1     4     5     9
 -0.0000000016     1     4     5    10
 0.0000000003     1     4     7     2
 0.0001945337     1     4     7     3
 0.0000884414     1     4     8     2
 -0.0000000006     1     4     8     3
 0.0016569666     1     4     9     5
 -0.0000000011     1     4    10     5
 -0.0030499526     1     5     2     7
 0.0000000020     1     5     2     8
 -0.0000000050     1     5     3     7
 0.0008462450     1     5     3     8
 -0.0000000102     1     5     4     1
 -0.0000000007     1     5     4     6
 -0.0009960825     1     5     4     9
 -0.0000000006     1     5     4    10
 -0.2609492377     1     5     5     1
 0.0002434737     1     5     5     6
 -0.0000000109     1     5     5     9
 -0.0180266922     1     5     5    10
 0.0002138745     1     5     7     2
 -0.0000000002     1     5     7     3
 -0.0000000006     1     5     8     2
 -0.0001043915     1     5     8     3
 -0.0016569666     1     5     9     4
 0.0000000011     1     5    10     4
 -0.0008325416     1     6     2     2
 0.0000000022     1     6     2     3
 0.0000000021     1     6     3     2
 0.0009125689     1     6     3     3
 0.0003142566     1     6     4     4
 0.0000000007     1     6     4     5
 0.0000000008     1     6     5     4
 -0.0002434737     1     6     5     5
 -0.1896856573     1     6     6     1
 -0.0000000079     1     6     6     9
 -0.0117646411     1     6     6    10
 -0.0010187073     1     6     7     7
 -0.0000000014     1     6     7     8
 -0.0000000012     1     6     8     7
 0.0010462557     1     6     8     8
 0.0000000505     1     6     9     1
 0.0012501230     1     6     9     9
 0.0000000081     1     6     9    10
 -0.0072051675     1     6    10     1
 0.0000000078     1     6    10     9
 -0.0012575126     1     6    10    10
 0.0000000007     1     7     2     4
 0.0030499526     1     7     2     5
 0.0000588389     1     7     3     4
 0.0000000050     1     7     3     5
 0.0000000019     1     7     4     2
 0.0005222508     1     7     4     3
 0.0039581819     1     7     5     2
 0.0000000047     1     7     5     3
 -0.0000000001     1     7     6     8
 -0.1851394853     1     7     7     1
 0.0010187073     1     7     7     6
 -0.0000000079     1     7     7     9
 -0.0082230846     1     7     7    10
 0.0000000314     1     7     8     1
 0.0000000012     1     7     8     6
 -0.0017582776     1     7     8     9
 -0.0000000009     1     7     8    10
 -0.0027865020     1     7     9     8
 0.0000000019     1     7    10     8
 -0.0021519056     1     8     2     4
 -0.0000000020     1     8     2     5
 -0.0000000079     1     8     3     4
 -0.0008462450     1     8     3     5
 -0.0021171577     1     8     4     2
 -0.0000000104     1     8     4     3
 -0.0000000039     1     8     5     2
 -0.0013002411     1     8     5     3
 0.0000000001     1     8     6     7
 0.0000000314     1     8     7     1
 0.0000000014     1     8     7     6
 0.0010283330     1     8     7     9
 -0.0000000027     1     8     7    10
 -0.1752995698     1     8     8     1
 -0.0010462557     1     8     8     6
 -0.0000000035     1     8     8     9
 -0.0088983674     1     8     8    10
 0.0027865020     1     8     9     7
 -0.0000000019     1     8    10     7
 0.0000000091     1     9     2     2
 0.0014677708     1     9     2     3
 0.0004301532     1     9     3     2
 0.0000000176     1     9     3     3
 0.0000000129     1     9     4     4
 0.0009960825     1     9     4     5
 -0.0005407619     1     9     5     4
 0.0000000109     1     9     5     5
 0.0000000505     1     9     6     1
 0.0000000079     1     9     6     6
 0.0000000004     1     9     6    10
 0.0000000079     1     9     7     7
 -0.0010283330     1     9     7     8
 0.0017582776     1     9     8     7
 0.0000000035     1     9     8     8
 -0.1750881993     1     9     9     1
 -0.0012501230     1     9     9     6
 -0.0071182760     1     9     9    10
 -0.0000000026     1     9    10     1
 -0.0000000078     1     9    10     6
 0.0000000047     1     9    10    10
 0.0209808627     1    10     2     2
 0.0000000039     1    10     2     3
 0.0000000046     1    10     3     2
 0.0190860565     1    10     3     3
 0.0175276929     1    10     4     4
 0.0000000006     1    10     4     5
 0.0000000016     1    10     5     4
 0.0180266922     1    10     5     5
 -0.0072051675     1    10     6     1
 0.0117646411     1    10     6     6
 -0.0000000004     1    10     6     9
 0.0082230846     1    10     7     7
 0.0000000027     1    10     7     8
 0.0000000009     1    10     8     7
 0.0088983674     1    10     8     8
 -0.0000000026     1    10     9     1
 -0.0000000081     1    10     9     6
 0.0071182760     1    10     9     9
 -0.1790237317     1    10    10     1
 0.0012575126     1    10    10     6
 -0.0000000047     1    10    10     9
 -0.2699080877     2     1     1     2
 -0.0000000079     2     1     1     3
 0.0009258104     2     1     3     9
 -0.0000000006     2     1     3    10
 -0.0000000003     2     1     4     7
 -0.0000884414     2     1     4     8
 -0.0002138745     2     1     5     7
 0.0000000006     2     1     5     8
 0.0008325416     2     1     6     2
 -0.0000000021     2     1     6     3
 -0.0000000019     2     1     7     4
 -0.0039581819     2     1     7     5
 0.0021171577     2     1     8     4
 0.0000000039     2     1     8     5
 -0.0000000091     2     1     9     2
 -0.0004301532     2     1     9     3
 -0.0209808627     2     1    10     2
 -0.0000000046     2     1    10     3
 0.2699080877     2     2     1     1
 -0.0008325416     2     2     1     6
 0.0000000091     2     2     1     9
 0.0209808627     2     2     1    10
 0.2505083302     2     2     3     3
 0.2309027836     2     2     4     4
 -0.0000000005     2     2     4     5
 -0.0000000005     2     2     5     4
 0.2406933168     2     2     5     5
 -0.0008325416     2     2     6     1
 0.1878683598     2     2     6     6
 -0.0000000161     2     2     6     9
 0.0087759419     2     2     6    10
 0.1843835076     2     2     7     7
 -0.0000000091     2     2     7     8
 -0.0000000091     2     2     8     7
 0.1694542752     2     2     8     8
 0.0000000091     2     2     9     1
 -0.0000000161     2     2     9     6
 0.1682634835     2     2     9     9
 -0.0000000188     2     2     9    10
 0.0209808627     2     2    10     1
 0.0087759419     2     2    10     6
 -0.0000000188     2     2    10     9
 0.1777904134     2     2    10    10
 0.0000000079     2     3     1     1
 0.0000000022     2     3     1     6
 0.0014677708     2     3     1     9
 0.0000000039     2     3     1    10
 -0.2505083302     2     3     3     2
 -0.0000000005     2     3     4     4
 0.0273598161     2     3     4     5
 -0.0175500479     2     3     5     4
 0.0000000004     2     3     5     5
 0.0000000021     2     3     6     1
 -0.0087716238     2     3     6     9
 -0.0000000161     2     3     6    10
 -0.0000000091     2     3     7     7
 -0.0076175649     2     3     7     8
 -0.0073135507     2     3     8     7
 0.0000000091     2     3     8     8
 0.0004301532     2     3     9     1
 -0.0087715704     2     3     9     6
 -0.0000000187     2     3     9     9
 0.0046755609     2     3     9    10
 0.0000000046     2     3    10     1
 -0.0000000161     2     3    10     6
 0.0050704297     2     3    10     9
 0.0000000186     2     3    10    10
 0.0000000007     2     4     1     7
 -0.0021519056     2     4     1     8
 0.0447515547     2     4     3     5
 -0.2309027836     2     4     4     2
 0.0000000005     2     4     4     3
 0.0000000005     2     4     5     2
 0.0175500479     2     4     5     3
 0.0000000159     2     4     6     7
 0.0247030299     2     4     6     8
 0.0000000019     2     4     7     1
 0.0000000158     2     4     7     6
 0.0160777615     2     4     7     9
 0.0000000204     2     4     7    10
 -0.0021171577     2     4     8     1
 0.0244784462     2     4     8     6
 0.0000000192     2     4     8     9
 -0.0153611395     2     4     8    10
 0.0161491273     2     4     9     7
 0.0000000192     2     4     9     8
 0.0000000205     2     4    10     7
 -0.0153513898     2     4    10     8
 0.0030499526     2     5     1     7
 -0.0000000020     2     5     1     8
 -0.0447515547     2     5     3     4
 0.0000000005     2     5     4     2
 -0.0273598161     2     5     4     3
 -0.2406933168     2     5     5     2
 -0.0000000004     2     5     5     3
 0.0246825040     2     5     6     7
 -0.0000000159     2     5     6     8
 0.0039581819     2     5     7     1
 0.0244641671     2     5     7     6
 -0.0000000340     2     5     7     9
 0.0212560447     2     5     7    10
 -0.0000000039     2     5     8     1
 -0.0000000158     2     5     8     6
 0.0101473730     2     5     8     9
 0.0000000059     2     5     8    10
 -0.0000000340     2     5     9     7
 0.0101827083     2     5     9     8
 0.0212758458     2     5    10     7
 0.0000000059     2     5    10     8
 0.0008325416     2     6     1     2
 -0.0000000022     2     6     1     3
 0.0000000105     2     6     3     9
 0.0000000001     2     6     4     7
 0.0001048700     2     6     4     8
 0.0001028397     2     6     5     7
 -0.0000000001     2     6     5     8
 -0.1878683598     2     6     6     2
 -0.0000000158     2     6     7     4
 -0.0244641671     2     6     7     5
 -0.0244784462     2     6     8     4
 0.0000000158     2     6     8     5
 0.0000000161     2     6     9     2
 0.0087715704     2     6     9     3
 -0.0087759419     2     6    10     2
 0.0000000161     2     6    10     3
 -0.0000000007     2     7     1     4
 -0.0030499526     2     7     1     5
 -0.0002714267     2     7     3     8
 0.0000000003     2     7     4     1
 -0.0000000001     2     7     4     6
 -0.0000292882     2     7     4     9
 -0.0000000001     2     7     4    10
 0.0002138745     2     7     5     1
 -0.0001028397     2     7     5     6
 -0.0000011333     2     7     5    10
 -0.0000000159     2     7     6     4
 -0.0246825040     2     7     6     5
 -0.1843835076     2     7     7     2
 0.0000000091     2     7     7     3
 0.0000000091     2     7     8     2
 0.0073135507     2     7     8     3
 -0.0161491273     2     7     9     4
 0.0000000340     2     7     9     5
 -0.0000000205     2     7    10     4
 -0.0212758458     2     7    10     5
 0.0021519056     2     8     1     4
 0.0000000020     2     8     1     5
 0.0002714267     2     8     3     7
 0.0000884414     2     8     4     1
 -0.0001048700     2     8     4     6
 0.0000000001     2     8     4     9
 -0.0000280544     2     8     4    10
 -0.0000000006     2     8     5     1
 0.0000000001     2     8     5     6
 -0.0000014899     2     8     5     9
 -0.0247030299     2     8     6     4
 0.0000000159     2     8     6     5
 0.0000000091     2     8     7     2
 0.0076175649     2     8     7     3
 -0.1694542752     2     8     8     2
 -0.0000000091     2     8     8     3
 -0.0000000192     2     8     9     4
 -0.0101827083     2     8     9     5
 0.0153513898     2     8    10     4
 -0.0000000059     2     8    10     5
 -0.0000000091     2     9     1     2
 -0.0014677708     2     9     1     3
 -0.0009258104     2     9     3     1
 -0.0000000105     2     9     3     6
 -0.0002135321     2     9     3    10
 0.0000292882     2     9     4     7
 -0.0000000001     2     9     4     8
 0.0000014899     2     9     5     8
 0.0000000161     2     9     6     2
 0.0087716238     2     9     6     3
 -0.0160777615     2     9     7     4
 0.0000000340     2     9     7     5
 -0.0000000192     2     9     8     4
 -0.0101473730     2     9     8     5
 -0.1682634835     2     9     9     2
 0.0000000187     2     9     9     3
 0.0000000188     2     9    10     2
 -0.0050704297     2     9    10     3
 -0.0209808627     2    10     1     2
 -0.0000000039     2    10     1     3
 0.0000000006     2    10     3     1
 0.0002135321     2    10     3     9
 0.0000000001     2    10     4     7
 0.0000280544     2    10     4     8
 0.0000011333     2    10     5     7
 -0.0087759419     2    10     6     2
 0.0000000161     2    10     6     3
 -0.0000000204     2    10     7     4
 -0.0212560447     2    10     7     5
 0.0153611395     2    10     8     4
 -0.0000000059     2    10     8     5
 0.0000000188     2    10     9     2
 -0.0046755609     2    10     9     3
 -0.1777904134     2    10    10     2
 -0.0000000186     2    10    10     3
 -0.0000000079     3     1     1     2
 -0.2668094996     3     1     1     3
 -0.0009258104     3     1     2     9
 0.0000000006     3     1     2    10
 -0.0001945337     3     1     4     7
 0.0000000006     3     1     4     8
 0.0000000002     3     1     5     7
 0.0001043915     3     1     5     8
 -0.0000000022     3     1     6     2
 -0.0009125689     3     1     6     3
 -0.0005222508     3     1     7     4
 -0.0000000047     3     1     7     5
 0.0000000104     3     1     8     4
 0.0013002411     3     1     8     5
 -0.0014677708     3     1     9     2
 -0.0000000176     3     1     9     3
 -0.0000000039     3     1    10     2
 -0.0190860565     3     1    10     3
 0.0000000079     3     2     1     1
 0.0000000021     3     2     1     6
 0.0004301532     3     2     1     9
 0.0000000046     3     2     1    10
 -0.2505083302     3     2     2     3
 -0.0000000005     3     2     4     4
 -0.0175500479     3     2     4     5
 0.0273598161     3     2     5     4
 0.0000000004     3     2     5     5
 0.0000000022     3     2     6     1
 -0.0087715704     3     2     6     9
 -0.0000000161     3     2     6    10
 -0.0000000091     3     2     7     7
 -0.0073135507     3     2     7     8
 -0.0076175649     3     2     8     7
 0.0000000091     3     2     8     8
 0.0014677708     3     2     9     1
 -0.0087716238     3     2     9     6
 -0.0000000187     3     2     9     9
 0.0050704297     3     2     9    10
 0.0000000039     3     2    10     1
 -0.0000000161     3     2    10     6
 0.0046755609     3     2    10     9
 0.0000000186     3     2    10    10
 0.2668094996     3     3     1     1
 0.0009125689     3     3     1     6
 0.0000000176     3     3     1     9
 0.0190860565     3     3     1    10
 0.2505083302     3     3     2     2
 0.2407500341     3     3     4     4
 0.0000000004     3     3     4     5
 0.0000000004     3     3     5     4
 0.2309223184     3     3     5     5
 0.0009125689     3     3     6     1
 0.1878683855     3     3     6     6
 0.0000000161     3     3     6     9
 -0.0087754538     3     3     6    10
 0.1694603295     3     3     7     7
 0.0000000091     3     3     7     8
 0.0000000091     3     3     8     7
 0.1843945406     3     3     8     8
 0.0000000176     3     3     9     1
 0.0000000161     3     3     9     6
 0.1780210131     3     3     9     9
 0.0000000185     3     3     9    10
 0.0190860565     3     3    10     1
 -0.0087754538     3     3    10     6
 0.0000000185     3     3    10     9
 0.1680566790     3     3    10    10
 0.0000588389     3     4     1     7
 -0.0000000079     3     4     1     8
 -0.0447515547     3     4     2     5
 0.0000000005     3     4     4     2
 -0.2407500341     3     4     4     3
 -0.0273598161     3     4     5     2
 -0.0000000004     3     4     5     3
 -0.0247173302     3     4     6     7
 0.0000000158     3     4     6     8
 0.0005222508     3     4     7     1
 -0.0244989053     3     4     7     6
 0.0000000057     3     4     7     9
 -0.0101675142     3     4     7    10
 -0.0000000104     3     4     8     1
 0.0000000156     3     4     8     6
 -0.0213307663     3     4     8     9
 -0.0000000337     3     4     8    10
 0.0000000057     3     4     9     7
 -0.0213720621     3     4     9     8
 -0.0102034927     3     4    10     7
 -0.0000000337     3     4    10     8
 0.0000000050     3     5     1     7
 -0.0008462450     3     5     1     8
 0.0447515547     3     5     2     4
 0.0175500479     3     5     4     2
 -0.0000000004     3     5     4     3
 -0.0000000004     3     5     5     2
 -0.2309223184     3     5     5     3
 0.0000000159     3     5     6     7
 0.0247088411     3     5     6     8
 0.0000000047     3     5     7     1
 0.0000000158     3     5     7     6
 0.0153861953     3     5     7     9
 0.0000000190     3     5     7    10
 -0.0013002411     3     5     8     1
 0.0244882398     3     5     8     6
 0.0000000204     3     5     8     9
 -0.0160805924     3     5     8    10
 0.0153943677     3     5     9     7
 0.0000000206     3     5     9     8
 0.0000000190     3     5    10     7
 -0.0161442133     3     5    10     8
 -0.0000000021     3     6     1     2
 -0.0009125689     3     6     1     3
 -0.0000000105     3     6     2     9
 -0.0001041630     3     6     4     7
 0.0000000001     3     6     4     8
 0.0000000001     3     6     5     7
 0.0001061663     3     6     5     8
 -0.1878683855     3     6     6     3
 0.0244989053     3     6     7     4
 -0.0000000158     3     6     7     5
 -0.0000000156     3     6     8     4
 -0.0244882398     3     6     8     5
 0.0087716238     3     6     9     2
 -0.0000000161     3     6     9     3
 0.0000000161     3     6    10     2
 0.0087754538     3     6    10     3
 -0.0000588389     3     7     1     4
 -0.0000000050     3     7     1     5
 0.0002714267     3     7     2     8
 0.0001945337     3     7     4     1
 0.0001041630     3     7     4     6
 -0.0000000001     3     7     4     9
 0.0000026265     3     7     4    10
 -0.0000000002     3     7     5     1
 -0.0000000001     3     7     5     6
 0.0000331604     3     7     5     9
 0.0247173302     3     7     6     4
 -0.0000000159     3     7     6     5
 0.0000000091     3     7     7     2
 -0.1694603295     3     7     7     3
 0.0076175649     3     7     8     2
 -0.0000000091     3     7     8     3
 -0.0000000057     3     7     9     4
 -0.0153943677     3     7     9     5
 0.0102034927     3     7    10     4
 -0.0000000190     3     7    10     5
 0.0000000079     3     8     1     4
 0.0008462450     3     8     1     5
 -0.0002714267     3     8     2     7
 -0.0000000006     3     8     4     1
 -0.0000000001     3     8     4     6
 -0.0000071466     3     8     4     9
 -0.0001043915     3     8     5     1
 -0.0001061663     3     8     5     6
 0.0000300951     3     8     5    10
 -0.0000000158     3     8     6     4
 -0.0247088411     3     8     6     5
 0.0073135507     3     8     7     2
 -0.0000000091     3     8     7     3
 -0.0000000091     3     8     8     2
 -0.1843945406     3     8     8     3
 0.0213720621     3     8     9     4
 -0.0000000206     3     8     9     5
 0.0000000337     3     8    10     4
 0.0161442133     3     8    10     5
 -0.0004301532     3     9     1     2
 -0.0000000176     3     9     1     3
 0.0009258104     3     9     2     1
 0.0000000105     3     9     2     6
 0.0002135321     3     9     2    10
 0.0000000001     3     9     4     7
 0.0000071466     3     9     4     8
 -0.0000331604     3     9     5     7
 0.0087715704     3     9     6     2
 -0.0000000161     3     9     6     3
 -0.0000000057     3     9     7     4
 -0.0153861953     3     9     7     5
 0.0213307663     3     9     8     4
 -0.0000000204     3     9     8     5
 0.0000000187     3     9     9     2
 -0.1780210131     3     9     9     3
 -0.0046755609     3     9    10     2
 -0.0000000185     3     9    10     3
 -0.0000000046     3    10     1     2
 -0.0190860565     3    10     1     3
 -0.0000000006     3    10     2     1
 -0.0002135321     3    10     2     9
 -0.0000026265     3    10     4     7
 -0.0000300951     3    10     5     8
 0.0000000161     3    10     6     2
 0.0087754538     3    10     6     3
 0.0101675142     3    10     7     4
 -0.0000000190     3    10     7     5
 0.0000000337     3    10     8     4
 0.0160805924     3    10     8     5
 -0.0050704297     3    10     9     2
 -0.0000000185     3    10     9     3
 -0.0000000186     3    10    10     2
 -0.1680566790     3    10    10     3
 -0.2569173597     4     1     1     4
 -0.0000000102     4     1     1     5
 0.0000000003     4     1     2     7
 0.0000884414     4     1     2     8
 0.0001945337     4     1     3     7
 -0.0000000006     4     1     3     8
 0.0016569666     4     1     5     9
 -0.0000000011     4     1     5    10
 -0.0003142566     4     1     6     4
 -0.0000000008     4     1     6     5
 -0.0000000007     4     1     7     2
 -0.0000588389     4     1     7     3
 0.0021519056     4     1     8     2
 0.0000000079     4     1     8     3
 -0.0000000129     4     1     9     4
 0.0005407619     4     1     9     5
 -0.0175276929     4     1    10     4
 -0.0000000016     4     1    10     5
 0.0000000019     4     2     1     7
 -0.0021171577     4     2     1     8
 -0.2309027836     4     2     2     4
 0.0000000005     4     2     2     5
 0.0000000005     4     2     3     4
 0.0175500479     4     2     3     5
 0.0447515547     4     2     5     3
 0.0000000158     4     2     6     7
 0.0244784462     4     2     6     8
 0.0000000007     4     2     7     1
 0.0000000159     4     2     7     6
 0.0161491273     4     2     7     9
 0.0000000205     4     2     7    10
 -0.0021519056     4     2     8     1
 0.0247030299     4     2     8     6
 0.0000000192     4     2     8     9
 -0.0153513898     4     2     8    10
 0.0160777615     4     2     9     7
 0.0000000192     4     2     9     8
 0.0000000204     4     2    10     7
 -0.0153611395     4     2    10     8
 0.0005222508     4     3     1     7
 -0.0000000104     4     3     1     8
 0.0000000005     4     3     2     4
 -0.0273598161     4     3     2     5
 -0.2407500341     4     3     3     4
 -0.0000000004     4     3     3     5
 -0.0447515547     4     3     5     2
 -0.0244989053     4     3     6     7
 0.0000000156     4     3     6     8
 0.0000588389     4     3     7     1
 -0.0247173302     4     3     7     6
 0.0000000057     4     3     7     9
 -0.0102034927     4     3     7    10
 -0.0000000079     4     3     8     1
 0.0000000158     4     3     8     6
 -0.0213720621     4     3     8     9
 -0.0000000337     4     3     8    10
 0.0000000057     4     3     9     7
 -0.0213307663     4     3     9     8
 -0.0101675142     4     3    10     7
 -0.0000000337     4     3    10     8
 0.2569173597     4     4     1     1
 0.0003142566     4     4     1     6
 0.0000000129     4     4     1     9
 0.0175276929     4     4     1    10
 0.2309027836     4     4     2     2
 -0.0000000005     4     4     2     3
 -0.0000000005     4     4     3     2
 0.2407500341     4     4     3     3
 0.2438371454     4     4     5     5
 0.0003142566     4     4     6     1
 0.1843837802     4     4     6     6
 0.0000000113     4     4     6     9
 -0.0058767894     4     4     6    10
 0.1699467785     4     4     7     7
 0.0000000062     4     4     7     8
 0.0000000062     4     4     8     7
 0.1795448272     4     4     8     8
 0.0000000129     4     4     9     1
 0.0000000113     4     4     9     6
 0.1748073272     4     4     9     9
 0.0000000128     4     4     9    10
 0.0175276929     4     4    10     1
 -0.0058767894     4     4    10     6
 0.0000000128     4     4    10     9
 0.1676979017     4     4    10    10
 0.0000000102     4     5     1     1
 0.0000000007     4     5     1     6
 0.0009960825     4     5     1     9
 0.0000000006     4     5     1    10
 -0.0000000005     4     5     2     2
 0.0273598161     4     5     2     3
 -0.0175500479     4     5     3     2
 0.0000000004     4     5     3     3
 -0.2438371454     4     5     5     4
 0.0000000008     4     5     6     1
 -0.0058763321     4     5     6     9
 -0.0000000113     4     5     6    10
 -0.0000000063     4     5     7     7
 -0.0048875597     4     5     7     8
 -0.0047166844     4     5     8     7
 0.0000000063     4     5     8     8
 -0.0005407619     4     5     9     1
 -0.0058763485     4     5     9     6
 -0.0000000129     4     5     9     9
 0.0034042032     4     5     9    10
 0.0000000016     4     5    10     1
 -0.0000000113     4     5    10     6
 0.0035152890     4     5    10     9
 0.0000000129     4     5    10    10
 -0.0003142566     4     6     1     4
 -0.0000000007     4     6     1     5
 -0.0000000001     4     6     2     7
 -0.0001048700     4     6     2     8
 0.0001041630     4     6     3     7
 -0.0000000001     4     6     3     8
 0.0000000314     4     6     5     9
 -0.1843837802     4     6     6     4
 -0.0000000159     4     6     7     2
 0.0247173302     4     6     7     3
 -0.0247030299     4     6     8     2
 -0.0000000158     4     6     8     3
 -0.0000000113     4     6     9     4
 0.0058763485     4     6     9     5
 0.0058767894     4     6    10     4
 0.0000000113     4     6    10     5
 -0.0000000019     4     7     1     2
 -0.0005222508     4     7     1     3
 -0.0000000003     4     7     2     1
 0.0000000001     4     7     2     6
 0.0000292882     4     7     2     9
 0.0000000001     4     7     2    10
 -0.0001945337     4     7     3     1
 -0.0001041630     4     7     3     6
 0.0000000001     4     7     3     9
 -0.0000026265     4     7     3    10
 -0.0002089779     4     7     5     8
 -0.0000000158     4     7     6     2
 0.0244989053     4     7     6     3
 -0.1699467785     4     7     7     4
 0.0000000063     4     7     7     5
 -0.0000000062     4     7     8     4
 0.0047166844     4     7     8     5
 -0.0160777615     4     7     9     2
 -0.0000000057     4     7     9     3
 -0.0000000204     4     7    10     2
 0.0101675142     4     7    10     3
 0.0021171577     4     8     1     2
 0.0000000104     4     8     1     3
 -0.0000884414     4     8     2     1
 0.0001048700     4     8     2     6
 -0.0000000001     4     8     2     9
 0.0000280544     4     8     2    10
 0.0000000006     4     8     3     1
 0.0000000001     4     8     3     6
 0.0000071466     4     8     3     9
 0.0002089779     4     8     5     7
 -0.0244784462     4     8     6     2
 -0.0000000156     4     8     6     3
 -0.0000000062     4     8     7     4
 0.0048875597     4     8     7     5
 -0.1795448272     4     8     8     4
 -0.0000000063     4     8     8     5
 -0.0000000192     4     8     9     2
 0.0213307663     4     8     9     3
 0.0153611395     4     8    10     2
 0.0000000337     4     8    10     3
 -0.0000000129     4     9     1     4
 -0.0009960825     4     9     1     5
 -0.0000292882     4     9     2     7
 0.0000000001     4     9     2     8
 -0.0000000001     4     9     3     7
 -0.0000071466     4     9     3     8
 -0.0016569666     4     9     5     1
 -0.0000000314     4     9     5     6
 -0.0003260568     4     9     5    10
 -0.0000000113     4     9     6     4
 0.0058763321     4     9     6     5
 -0.0161491273     4     9     7     2
 -0.0000000057     4     9     7     3
 -0.0000000192     4     9     8     2
 0.0213720621     4     9     8     3
 -0.1748073272     4     9     9     4
 0.0000000129     4     9     9     5
 -0.0000000128     4     9    10     4
 -0.0035152890     4     9    10     5