&FCI NORB=  8,NELEC=  6,MS2=0,
 ORBSYM=1,1,1,1,1,1,1,1
 ISYM=1,
&END
 0.2686849557     1     1     2     2
 0.0000000095     1     1     2     3
 0.0000000095     1     1     3     2
 0.2652362985     1     1     3     3
 0.2576752003     1     1     4     4
 0.0000000103     1     1     4     5
 0.0000000103     1     1     5     4
 0.2614650004     1     1     5     5
 0.1892685966     1     1     6     6
 0.1848337661     1     1     7     7
 0.0000000184     1     1     7     8
 0.0000000184     1     1     8     7
 0.1751001596     1     1     8     8
 -0.2686849557     1     2     2     1
 0.0010107710     1     2     2     6
 -0.0000000095     1     2     3     1
 -0.0000000027     1     2     3     6
 -0.0000000053     1     2     4     7
 -0.0022397215     1     2     4     8
 -0.0043418611     1     2     5     7
 0.0000000014     1     2     5     8
 -0.0000000002     1     2     7     4
 -0.0002476103     1     2     7     5
 0.0000738515     1     2     8     4
 -0.0000000004     1     2     8     5
 -0.0000000095     1     3     2     1
 -0.0000000027     1     3     2     6
 -0.2652362985     1     3     3     1
 -0.0010108124     1     3     3     6
 -0.0008185168     1     3     4     7
 -0.0000000111     1     3     4     8
 -0.0000000073     1     3     5     7
 -0.0012687077     1     3     5     8
 -0.0002193731     1     3     7     4
 0.0000000001     1     3     7     5
 -0.0000000005     1     3     8     4
 -0.0000986985     1     3     8     5
 -0.0000000034     1     4     2     7
 -0.0019702963     1     4     2     8
 -0.0002121410     1     4     3     7
 -0.0000000075     1     4     3     8
 -0.2576752003     1     4     4     1
 -0.0003129711     1     4     4     6
 -0.0000000103     1     4     5     1
 -0.0000000009     1     4     5     6
 0.0000000001     1     4     6     5
 0.0000000002     1     4     7     2
 0.0002193731     1     4     7     3
 -0.0000738515     1     4     8     2
 0.0000000005     1     4     8     3
 -0.0028131205     1     5     2     7
 0.0000000018     1     5     2     8
 -0.0000000060     1     5     3     7
 -0.0006357540     1     5     3     8
 -0.0000000103     1     5     4     1
 -0.0000000009     1     5     4     6
 -0.2614650004     1     5     5     1
 0.0003143805     1     5     5     6
 -0.0000000001     1     5     6     4
 0.0002476103     1     5     7     2
 -0.0000000001     1     5     7     3
 0.0000000004     1     5     8     2
 0.0000986985     1     5     8     3
 -0.0010107710     1     6     2     2
 0.0000000027     1     6     2     3
 0.0000000027     1     6     3     2
 0.0010108124     1     6     3     3
 0.0003129711     1     6     4     4
 0.0000000009     1     6     4     5
 0.0000000009     1     6     5     4
 -0.0003143805     1     6     5     5
 -0.1892685966     1     6     6     1
 -0.0008997848     1     6     7     7
 0.0000000041     1     6     7     8
 0.0000000040     1     6     8     7
 0.0009138065     1     6     8     8
 0.0000000034     1     7     2     4
 0.0028131205     1     7     2     5
 0.0002121410     1     7     3     4
 0.0000000060     1     7     3     5
 0.0000000053     1     7     4     2
 0.0008185168     1     7     4     3
 0.0043418611     1     7     5     2
 0.0000000073     1     7     5     3
 0.0000000001     1     7     6     8
 -0.1848337661     1     7     7     1
 0.0008997848     1     7     7     6
 -0.0000000184     1     7     8     1
 -0.0000000040     1     7     8     6
 0.0019702963     1     8     2     4
 -0.0000000018     1     8     2     5
 0.0000000075     1     8     3     4
 0.0006357540     1     8     3     5
 0.0022397215     1     8     4     2
 0.0000000111     1     8     4     3
 -0.0000000014     1     8     5     2
 0.0012687077     1     8     5     3
 -0.0000000001     1     8     6     7
 -0.0000000184     1     8     7     1
 -0.0000000041     1     8     7     6
 -0.1751001596     1     8     8     1
 -0.0009138065     1     8     8     6
 -0.2686849557     2     1     1     2
 -0.0000000095     2     1     1     3
 -0.0000000002     2     1     4     7
 0.0000738515     2     1     4     8
 -0.0002476103     2     1     5     7
 -0.0000000004     2     1     5     8
 0.0010107710     2     1     6     2
 -0.0000000027     2     1     6     3
 -0.0000000053     2     1     7     4
 -0.0043418611     2     1     7     5
 -0.0022397215     2     1     8     4
 0.0000000014     2     1     8     5
 0.2686849557     2     2     1     1
 -0.0010107710     2     2     1     6
 0.2505467336     2     2     3     3
 0.2299618355     2     2     4     4
 -0.0000000003     2     2     4     5
 -0.0000000003     2     2     5     4
 0.2390049052     2     2     5     5
 -0.0010107710     2     2     6     1
 0.1877393316     2     2     6     6
 0.1844940302     2     2     7     7
 -0.0000000130     2     2     7     8
 -0.0000000130     2     2     8     7
 0.1693078648     2     2     8     8
 0.0000000095     2     3     1     1
 0.0000000027     2     3     1     6
 -0.2505467336     2     3     3     2
 -0.0000000004     2     3     4     4
 0.0279363952     2     3     4     5
 -0.0188717848     2     3     5     4
 0.0000000002     2     3     5     5
 0.0000000027     2     3     6     1
 0.0000000130     2     3     7     7
 0.0077546724     2     3     7     8
 0.0074338454     2     3     8     7
 -0.0000000130     2     3     8     8
 0.0000000034     2     4     1     7
 0.0019702963     2     4     1     8
 0.0455975413     2     4     3     5
 -0.2299618355     2     4     4     2
 0.0000000004     2     4     4     3
 0.0000000003     2     4     5     2
 0.0188717848     2     4     5     3
 -0.0000000210     2     4     6     7
 -0.0251627320     2     4     6     8
 0.0000000053     2     4     7     1
 -0.0000000208     2     4     7     6
 0.0022397215     2     4     8     1
 -0.0249405273     2     4     8     6
 0.0028131205     2     5     1     7
 -0.0000000018     2     5     1     8
 -0.0455975413     2     5     3     4
 0.0000000003     2     5     4     2
 -0.0279363952     2     5     4     3
 -0.2390049052     2     5     5     2
 -0.0000000002     2     5     5     3
 0.0251454637     2     5     6     7
 -0.0000000210     2     5     6     8
 0.0043418611     2     5     7     1
 0.0249277958     2     5     7     6
 -0.0000000014     2     5     8     1
 -0.0000000208     2     5     8     6
 0.0010107710     2     6     1     2
 -0.0000000027     2     6     1     3
 -0.0000000001     2     6     4     7
 -0.0001070715     2     6     4     8
 0.0001048035     2     6     5     7
 -0.0000000001     2     6     5     8
 -0.1877393316     2     6     6     2
 0.0000000208     2     6     7     4
 -0.0249277958     2     6     7     5
 0.0249405273     2     6     8     4
 0.0000000208     2     6     8     5
 -0.0000000034     2     7     1     4
 -0.0028131205     2     7     1     5
 0.0002840060     2     7     3     8
 0.0000000002     2     7     4     1
 0.0000000001     2     7     4     6
 0.0002476103     2     7     5     1
 -0.0001048035     2     7     5     6
 0.0000000210     2     7     6     4
 -0.0251454637     2     7     6     5
 -0.1844940302     2     7     7     2
 -0.0000000130     2     7     7     3
 0.0000000130     2     7     8     2
 -0.0074338454     2     7     8     3
 -0.0019702963     2     8     1     4
 0.0000000018     2     8     1     5
 -0.0002840060     2     8     3     7
 -0.0000738515     2     8     4     1
 0.0001070715     2     8     4     6
 0.0000000004     2     8     5     1
 0.0000000001     2     8     5     6
 0.0251627320     2     8     6     4
 0.0000000210     2     8     6     5
 0.0000000130     2     8     7     2
 -0.0077546724     2     8     7     3
 -0.1693078648     2     8     8     2
 0.0000000130     2     8     8     3
 -0.0000000095     3     1     1     2
 -0.2652362985     3     1     1     3
 -0.0002193731     3     1     4     7
 -0.0000000005     3     1     4     8
 0.0000000001     3     1     5     7
 -0.0000986985     3     1     5     8
 -0.0000000027     3     1     6     2
 -0.0010108124     3     1     6     3
 -0.0008185168     3     1     7     4
 -0.0000000073     3     1     7     5
 -0.0000000111     3     1     8     4
 -0.0012687077     3     1     8     5
 0.0000000095     3     2     1     1
 0.0000000027     3     2     1     6
 -0.2505467336     3     2     2     3
 -0.0000000004     3     2     4     4
 -0.0188717848     3     2     4     5
 0.0279363952     3     2     5     4
 0.0000000002     3     2     5     5
 0.0000000027     3     2     6     1
 0.0000000130     3     2     7     7
 0.0074338454     3     2     7     8
 0.0077546724     3     2     8     7
 -0.0000000130     3     2     8     8
 0.2652362985     3     3     1     1
 0.0010108124     3     3     1     6
 0.2505467336     3     3     2     2
 0.2390632921     3     3     4     4
 0.0000000002     3     3     4     5
 0.0000000002     3     3     5     4
 0.2299771525     3     3     5     5
 0.0010108124     3     3     6     1
 0.1877393129     3     3     6     6
 0.1693169247     3     3     7     7
 0.0000000130     3     3     7     8
 0.0000000130     3     3     8     7
 0.1845078073     3     3     8     8
 0.0002121410     3     4     1     7
 0.0000000075     3     4     1     8
 -0.0455975413     3     4     2     5
 0.0000000004     3     4     4     2
 -0.2390632921     3     4     4     3
 -0.0279363952     3     4     5     2
 -0.0000000002     3     4     5     3
 -0.0251789224     3     4     6     7
 0.0000000212     3     4     6     8
 0.0008185168     3     4     7     1
 -0.0249623171     3     4     7     6
 0.0000000111     3     4     8     1
 0.0000000210     3     4     8     6
 0.0000000060     3     5     1     7
 0.0006357540     3     5     1     8
 0.0455975413     3     5     2     4
 0.0188717848     3     5     4     2
 -0.0000000002     3     5     4     3
 -0.0000000002     3     5     5     2
 -0.2299771525     3     5     5     3
 -0.0000000211     3     5     6     7
 -0.0251693254     3     5     6     8
 0.0000000073     3     5     7     1
 -0.0000000209     3     5     7     6
 0.0012687077     3     5     8     1
 -0.0249495421     3     5     8     6
 -0.0000000027     3     6     1     2
 -0.0010108124     3     6     1     3
 -0.0001063518     3     6     4     7
 0.0000000001     3     6     4     8
 -0.0000000001     3     6     5     7
 -0.0001086199     3     6     5     8
 -0.1877393129     3     6     6     3
 0.0249623171     3     6     7     4
 0.0000000209     3     6     7     5
 -0.0000000210     3     6     8     4
 0.0249495421     3     6     8     5
 -0.0002121410     3     7     1     4
 -0.0000000060     3     7     1     5
 -0.0002840060     3     7     2     8
 0.0002193731     3     7     4     1
 0.0001063518     3     7     4     6
 -0.0000000001     3     7     5     1
 0.0000000001     3     7     5     6
 0.0251789224     3     7     6     4
 0.0000000211     3     7     6     5
 -0.0000000130     3     7     7     2
 -0.1693169247     3     7     7     3
 -0.0077546724     3     7     8     2
 -0.0000000130     3     7     8     3
 -0.0000000075     3     8     1     4
 -0.0006357540     3     8     1     5
 0.0002840060     3     8     2     7
 0.0000000005     3     8     4     1
 -0.0000000001     3     8     4     6
 0.0000986985     3     8     5     1
 0.0001086199     3     8     5     6
 -0.0000000212     3     8     6     4
 0.0251693254     3     8     6     5
 -0.0074338454     3     8     7     2
 -0.0000000130     3     8     7     3
 0.0000000130     3     8     8     2
 -0.1845078073     3     8     8     3
 -0.2576752003     4     1     1     4
 -0.0000000103     4     1     1     5
 0.0000000002     4     1     2     7
 -0.0000738515     4     1     2     8
 0.0002193731     4     1     3     7
 0.0000000005     4     1     3     8
 0.0000000001     4     1     5     6
 -0.0003129711     4     1     6     4
 -0.0000000009     4     1     6     5
 -0.0000000034     4     1     7     2
 -0.0002121410     4     1     7     3
 -0.0019702963     4     1     8     2
 -0.0000000075     4     1     8     3
 0.0000000053     4     2     1     7
 0.0022397215     4     2     1     8
 -0.2299618355     4     2     2     4
 0.0000000003     4     2     2     5
 0.0000000004     4     2     3     4
 0.0188717848     4     2     3     5
 0.0455975413     4     2     5     3
 -0.0000000208     4     2     6     7
 -0.0249405273     4     2     6     8
 0.0000000034     4     2     7     1
 -0.0000000210     4     2     7     6
 0.0019702963     4     2     8     1
 -0.0251627320     4     2     8     6
 0.0008185168     4     3     1     7
 0.0000000111     4     3     1     8
 0.0000000004     4     3     2     4
 -0.0279363952     4     3     2     5
 -0.2390632921     4     3     3     4
 -0.0000000002     4     3     3     5
 -0.0455975413     4     3     5     2
 -0.0249623171     4     3     6     7
 0.0000000210     4     3     6     8
 0.0002121410     4     3     7     1
 -0.0251789224     4     3     7     6
 0.0000000075     4     3     8     1
 0.0000000212     4     3     8     6
 0.2576752003     4     4     1     1
 0.0003129711     4     4     1     6
 0.2299618355     4     4     2     2
 -0.0000000004     4     4     2     3
 -0.0000000004     4     4     3     2
 0.2390632921     4     4     3     3
 0.2441609159     4     4     5     5
 0.0003129711     4     4     6     1
 0.1840705989     4     4     6     6
 0.1696090674     4     4     7     7
 0.0000000080     4     4     7     8
 0.0000000080     4     4     8     7
 0.1792663290     4     4     8     8
 0.0000000103     4     5     1     1
 0.0000000009     4     5     1     6
 -0.0000000003     4     5     2     2
 0.0279363952     4     5     2     3
 -0.0188717848     4     5     3     2
 0.0000000002     4     5     3     3
 -0.2441609159     4     5     5     4
 0.0000000009     4     5     6     1
 0.0000000080     4     5     7     7
 0.0049143859     4     5     7     8
 0.0047483216     4     5     8     7
 -0.0000000080     4     5     8     8
 -0.0003129711     4     6     1     4
 -0.0000000009     4     6     1     5
 0.0000000001     4     6     2     7
 0.0001070715     4     6     2     8
 0.0001063518     4     6     3     7
 -0.0000000001     4     6     3     8
 -0.0000000001     4     6     5     1
 -0.1840705989     4     6     6     4
 0.0000000210     4     6     7     2
 0.0251789224     4     6     7     3
 0.0251627320     4     6     8     2
 -0.0000000212     4     6     8     3
 -0.0000000053     4     7     1     2
 -0.0008185168     4     7     1     3
 -0.0000000002     4     7     2     1
 -0.0000000001     4     7     2     6
 -0.0002193731     4     7     3     1
 -0.0001063518     4     7     3     6
 0.0002130844     4     7     5     8
 0.0000000208     4     7     6     2
 0.0249623171     4     7     6     3
 -0.1696090674     4     7     7     4
 -0.0000000080     4     7     7     5
 -0.0000000080     4     7     8     4
 -0.0047483216     4     7     8     5
 -0.0022397215     4     8     1     2
 -0.0000000111     4     8     1     3
 0.0000738515     4     8     2     1
 -0.0001070715     4     8     2     6
 -0.0000000005     4     8     3     1
 0.0000000001     4     8     3     6
 -0.0002130844     4     8     5     7
 0.0249405273     4     8     6     2
 -0.0000000210     4     8     6     3
 -0.0000000080     4     8     7     4
 -0.0049143859     4     8     7     5
 -0.1792663290     4     8     8     4
 0.0000000080     4     8     8     5
 -0.0000000103     5     1     1     4
 -0.2614650004     5     1     1     5
 0.0002476103     5     1     2     7
 0.0000000004     5     1     2     8
 -0.0000000001     5     1     3     7
 0.0000986985     5     1     3     8
 -0.0000000001     5     1     4     6
 -0.0000000009     5     1     6     4
 0.0003143805     5     1     6     5
 -0.0028131205     5     1     7     2
 -0.0000000060     5     1     7     3
 0.0000000018     5     1     8     2
 -0.0006357540     5     1     8     3
 0.0043418611     5     2     1     7
 -0.0000000014     5     2     1     8
 0.0000000003     5     2     2     4
 -0.2390049052     5     2     2     5
 -0.0279363952     5     2     3     4
 -0.0000000002     5     2     3     5
 -0.0455975413     5     2     4     3
 0.0249277958     5     2     6     7
 -0.0000000208     5     2     6     8
 0.0028131205     5     2     7     1
 0.0251454637     5     2     7     6
 -0.0000000018     5     2     8     1
 -0.0000000210     5     2     8     6
 0.0000000073     5     3     1     7
 0.0012687077     5     3     1     8
 0.0188717848     5     3     2     4
 -0.0000000002     5     3     2     5
 -0.0000000002     5     3     3     4
 -0.2299771525     5     3     3     5
 0.0455975413     5     3     4     2
 -0.0000000209     5     3     6     7
 -0.0249495421     5     3     6     8
 0.0000000060     5     3     7     1
 -0.0000000211     5     3     7     6
 0.0006357540     5     3     8     1
 -0.0251693254     5     3     8     6
 0.0000000103     5     4     1     1
 0.0000000009     5     4     1     6
 -0.0000000003     5     4     2     2
 -0.0188717848     5     4     2     3
 0.0279363952     5     4     3     2
 0.0000000002     5     4     3     3
 -0.2441609159     5     4     4     5
 0.0000000009     5     4     6     1
 0.0000000080     5     4     7     7
 0.0047483216     5     4     7     8
 0.0049143859     5     4     8     7
 -0.0000000080     5     4     8     8
 0.2614650004     5     5     1     1
 -0.0003143805     5     5     1     6
 0.2390049052     5     5     2     2
 0.0000000002     5     5     2     3
 0.0000000002     5     5     3     2
 0.2299771525     5     5     3     3
 0.2441609159     5     5     4     4
 -0.0003143805     5     5     6     1
 0.1840706075     5     5     6     6
 0.1792781970     5     5     7     7
 -0.0000000080     5     5     7     8
 -0.0000000080     5     5     8     7
 0.1696100254     5     5     8     8
 -0.0000000009     5     6     1     4
 0.0003143805     5     6     1     5
 -0.0001048035     5     6     2     7
 0.0000000001     5     6     2     8
 0.0000000001     5     6     3     7
 0.0001086199     5     6     3     8
 0.0000000001     5     6     4     1
 -0.1840706075     5     6     6     5
 -0.0251454637     5     6     7     2
 0.0000000211     5     6     7     3
 0.0000000210     5     6     8     2
 0.0251693254     5     6     8     3
 -0.0043418611     5     7     1     2
 -0.0000000073     5     7     1     3
 -0.0002476103     5     7     2     1
 0.0001048035     5     7     2     6
 0.0000000001     5     7     3     1
 -0.0000000001     5     7     3     6
 -0.0002130844     5     7     4     8
 -0.0249277958     5     7     6     2
 0.0000000209     5     7     6     3
 -0.0000000080     5     7     7     4
 -0.1792781970     5     7     7     5
 -0.0049143859     5     7     8     4
 0.0000000080     5     7     8     5
 0.0000000014     5     8     1     2
 -0.0012687077     5     8     1     3
 -0.0000000004     5     8     2     1
 -0.0000000001     5     8     2     6
 -0.0000986985     5     8     3     1
 -0.0001086199     5     8     3     6
 0.0002130844     5     8     4     7
 0.0000000208     5     8     6     2
 0.0249495421     5     8     6     3
 -0.0047483216     5     8     7     4
 0.0000000080     5     8     7     5
 0.0000000080     5     8     8     4
 -0.1696100254     5     8     8     5
 -0.1892685966     6     1     1     6
 -0.0010107710     6     1     2     2
 0.0000000027     6     1     2     3
 0.0000000027     6     1     3     2
 0.0010108124     6     1     3     3
 0.0003129711     6     1     4     4
 0.0000000009     6     1     4     5
 0.0000000009     6     1     5     4
 -0.0003143805     6     1     5     5
 -0.0008997848     6     1     7     7
 0.0000000040     6     1     7     8
 0.0000000041     6     1     8     7
 0.0009138065     6     1     8     8
 0.0010107710     6     2     2     1
 -0.1877393316     6     2     2     6
 -0.0000000027     6     2     3     1
 0.0000000208     6     2     4     7
 0.0249405273     6     2     4     8
 -0.0249277958     6     2     5     7
 0.0000000208     6     2     5     8
 -0.0000000001     6     2     7     4
 0.0001048035     6     2     7     5
 -0.0001070715     6     2     8     4
 -0.0000000001     6     2     8     5
 -0.0000000027     6     3     2     1
 -0.0010108124     6     3     3     1
 -0.1877393129     6     3     3     6
 0.0249623171     6     3     4     7
 -0.0000000210     6     3     4     8
 0.0000000209     6     3     5     7
 0.0249495421     6     3     5     8
 -0.0001063518     6     3     7     4
 -0.0000000001     6     3     7     5
 0.0000000001     6     3     8     4
 -0.0001086199     6     3     8     5
 -0.0000000001     6     4     1     5
 0.0000000210     6     4     2     7
 0.0251627320     6     4     2     8
 0.0251789224     6     4     3     7
 -0.0000000212     6     4     3     8
 -0.0003129711     6     4     4     1
 -0.1840705989     6     4     4     6
 -0.0000000009     6     4     5     1
 0.0000000001     6     4     7     2
 0.0001063518     6     4     7     3
 0.0001070715     6     4     8     2
 -0.0000000001     6     4     8     3
 0.0000000001     6     5     1     4
 -0.0251454637     6     5     2     7
 0.0000000210     6     5     2     8
 0.0000000211     6     5     3     7
 0.0251693254     6     5     3     8
 -0.0000000009     6     5     4     1
 0.0003143805     6     5     5     1
 -0.1840706075     6     5     5     6
 -0.0001048035     6     5     7     2
 0.0000000001     6     5     7     3
 0.0000000001     6     5     8     2
 0.0001086199     6     5     8     3
 0.1892685966     6     6     1     1
 0.1877393316     6     6     2     2
 0.1877393129     6     6     3     3
 0.1840705989     6     6     4     4
 0.1840706075     6     6     5     5
 0.1116630608     6     6     7     7
 0.1116631017     6     6     8     8
 -0.0000000001     6     7     1     8
 -0.0000000210     6     7     2     4
 0.0251454637     6     7     2     5
 -0.0251789224     6     7     3     4
 -0.0000000211     6     7     3     5
 -0.0000000208     6     7     4     2
 -0.0249623171     6     7     4     3
 0.0249277958     6     7     5     2
 -0.0000000209     6     7     5     3
 0.0008997848     6     7     7     1
 -0.1116630608     6     7     7     6
 -0.0000000041     6     7     8     1
 0.0000000001     6     8     1     7
 -0.0251627320     6     8     2     4
 -0.0000000210     6     8     2     5
 0.0000000212     6     8     3     4
 -0.0251693254     6     8     3     5
 -0.0249405273     6     8     4     2
 0.0000000210     6     8     4     3
 -0.0000000208     6     8     5     2
 -0.0249495421     6     8     5     3
 -0.0000000040     6     8     7     1
 -0.0009138065     6     8     8     1
 -0.1116631017     6     8     8     6
 -0.1848337661     7     1     1     7
 -0.0000000184     7     1     1     8
 0.0000000053     7     1     2     4
 0.0043418611     7     1     2     5
 0.0008185168     7     1     3     4
 0.0000000073     7     1     3     5
 0.0000000034     7     1     4     2
 0.0002121410     7     1     4     3
 0.0028131205     7     1     5     2
 0.0000000060     7     1     5     3
 0.0008997848     7     1     6     7
 -0.0000000040     7     1     6     8
 0.0000000001     7     1     8     6
 0.0000000002     7     2     1     4
 0.0002476103     7     2     1     5
 -0.1844940302     7     2     2     7
 0.0000000130     7     2     2     8
 -0.0000000130     7     2     3     7
 -0.0074338454     7     2     3     8
 -0.0000000034     7     2     4     1
 0.0000000210     7     2     4     6
 -0.0028131205     7     2     5     1
 -0.0251454637     7     2     5     6
 0.0000000001     7     2     6     4
 -0.0001048035     7     2     6     5
 0.0002840060     7     2     8     3
 0.0002193731     7     3     1     4
 -0.0000000001     7     3     1     5
 -0.0000000130     7     3     2     7
 -0.0077546724     7     3     2     8
 -0.1693169247     7     3     3     7
 -0.0000000130     7     3     3     8
 -0.0002121410     7     3     4     1
 0.0251789224     7     3     4     6
 -0.0000000060     7     3     5     1
 0.0000000211     7     3     5     6
 0.0001063518     7     3     6     4
 0.0000000001     7     3     6     5
 -0.0002840060     7     3     8     2
 -0.0000000002     7     4     1     2
 -0.0002193731     7     4     1     3
 -0.0000000053     7     4     2     1
 0.0000000208     7     4     2     6
 -0.0008185168     7     4     3     1
 0.0249623171     7     4     3     6
 -0.1696090674     7     4     4     7
 -0.0000000080     7     4     4     8
 -0.0000000080     7     4     5     7
 -0.0047483216     7     4     5     8
 -0.0000000001     7     4     6     2
 -0.0001063518     7     4     6     3
 0.0002130844     7     4     8     5
 -0.0002476103     7     5     1     2
 0.0000000001     7     5     1     3
 -0.0043418611     7     5     2     1
 -0.0249277958     7     5     2     6
 -0.0000000073     7     5     3     1
 0.0000000209     7     5     3     6
 -0.0000000080     7     5     4     7
 -0.0049143859     7     5     4     8
 -0.1792781970     7     5     5     7
 0.0000000080     7     5     5     8
 0.0001048035     7     5     6     2
 -0.0000000001     7     5     6     3
 -0.0002130844     7     5     8     4
 0.0008997848     7     6     1     7
 -0.0000000041     7     6     1     8
 -0.0000000208     7     6     2     4
 0.0249277958     7     6     2     5
 -0.0249623171     7     6     3     4
 -0.0000000209     7     6     3     5
 -0.0000000210     7     6     4     2
 -0.0251789224     7     6     4     3
 0.0251454637     7     6     5     2
 -0.0000000211     7     6     5     3
 -0.1116630608     7     6     6     7
 -0.0000000001     7     6     8     1
 0.1848337661     7     7     1     1
 -0.0008997848     7     7     1     6
 0.1844940302     7     7     2     2
 0.0000000130     7     7     2     3
 0.0000000130     7     7     3     2
 0.1693169247     7     7     3     3
 0.1696090674     7     7     4     4
 0.0000000080     7     7     4     5
 0.0000000080     7     7     5     4
 0.1792781970     7     7     5     5
 -0.0008997848     7     7     6     1
 0.1116630608     7     7     6     6
 0.1310642628     7     7     8     8
 0.0000000184     7     8     1     1
 0.0000000041     7     8     1     6
 -0.0000000130     7     8     2     2
 0.0077546724     7     8     2     3
 0.0074338454     7     8     3     2
 0.0000000130     7     8     3     3
 0.0000000080     7     8     4     4
 0.0049143859     7     8     4     5
 0.0047483216     7     8     5     4
 -0.0000000080     7     8     5     5
 0.0000000040     7     8     6     1
 -0.1310642628     7     8     8     7
 -0.0000000184     8     1     1     7
 -0.1751001596     8     1     1     8
 0.0022397215     8     1     2     4
 -0.0000000014     8     1     2     5
 0.0000000111     8     1     3     4
 0.0012687077     8     1     3     5
 0.0019702963     8     1     4     2
 0.0000000075     8     1     4     3
 -0.0000000018     8     1     5     2
 0.0006357540     8     1     5     3
 -0.0000000041     8     1     6     7
 -0.0009138065     8     1     6     8
 -0.0000000001     8     1     7     6
 -0.0000738515     8     2     1     4
 0.0000000004     8     2     1     5
 0.0000000130     8     2     2     7
 -0.1693078648     8     2     2     8
 -0.0077546724     8     2     3     7
 0.0000000130     8     2     3     8
 -0.0019702963     8     2     4     1
 0.0251627320     8     2     4     6
 0.0000000018     8     2     5     1
 0.0000000210     8     2     5     6
 0.0001070715     8     2     6     4
 0.0000000001     8     2     6     5
 -0.0002840060     8     2     7     3
 0.0000000005     8     3     1     4
 0.0000986985     8     3     1     5
 -0.0074338454     8     3     2     7
 0.0000000130     8     3     2     8
 -0.0000000130     8     3     3     7
 -0.1845078073     8     3     3     8
 -0.0000000075     8     3     4     1
 -0.0000000212     8     3     4     6
 -0.0006357540     8     3     5     1
 0.0251693254     8     3     5     6
 -0.0000000001     8     3     6     4
 0.0001086199     8     3     6     5
 0.0002840060     8     3     7     2
 0.0000738515     8     4     1     2
 -0.0000000005     8     4     1     3
 -0.0022397215     8     4     2     1
 0.0249405273     8     4     2     6
 -0.0000000111     8     4     3     1
 -0.0000000210     8     4     3     6
 -0.0000000080     8     4     4     7
 -0.1792663290     8     4     4     8
 -0.0049143859     8     4     5     7
 0.0000000080     8     4     5     8
 -0.0001070715     8     4     6     2
 0.0000000001     8     4     6     3
 -0.0002130844     8     4     7     5
 -0.0000000004     8     5     1     2
 -0.0000986985     8     5     1     3
 0.0000000014     8     5     2     1
 0.0000000208     8     5     2     6
 -0.0012687077     8     5     3     1
 0.0249495421     8     5     3     6
 -0.0047483216     8     5     4     7
 0.0000000080     8     5     4     8
 0.0000000080     8     5     5     7
 -0.1696100254     8     5     5     8
 -0.0000000001     8     5     6     2
 -0.0001086199     8     5     6     3
 0.0002130844     8     5     7     4
 -0.0000000040     8     6     1     7
 -0.0009138065     8     6     1     8
 -0.0249405273     8     6     2     4
 -0.0000000208     8     6     2     5
 0.0000000210     8     6     3     4
 -0.0249495421     8     6     3     5
 -0.0251627320     8     6     4     2
 0.0000000212     8     6     4     3
 -0.0000000210     8     6     5     2
 -0.0251693254     8     6     5     3
 -0.1116631017     8     6     6     8
 0.0000000001     8     6     7     1
 0.0000000184     8     7     1     1
 0.0000000040     8     7     1     6