&FCI NORB=  8,NELEC=  8,MS2=0,
 ORBSYM=1,1,1,1,1,1,1,1
 ISYM=1,
&END
 0.2578296122     1     1     2     2
 0.0000000202     1     1     2     7
 0.2652361541     1     1     3     3
 -0.0000000105     1     1     3     4
 -0.0000000105     1     1     4     3
 0.2686658412     1     1     4     4
 0.2614787102     1     1     5     5
 0.0000000116     1     1     5     6
 0.0000000116     1     1     6     5
 0.2576701880     1     1     6     6
 0.0000000202     1     1     7     2
 0.1892685848     1     1     7     7
 0.1751001709     1     1     8     8
 -0.2578296122     1     2     2     1
 0.0000000105     1     2     3     3
 -0.0020832077     1     2     3     4
 -0.0013528906     1     2     4     3
 -0.0000000105     1     2     4     4
 -0.0000000115     1     2     5     5
 0.0010246873     1     2     5     6
 0.0027723900     1     2     6     5
 0.0000000115     1     2     6     6
 -0.0000000202     1     2     7     1
 0.0000000300     1     2     8     8
 -0.0000715150     1     3     2     4
 -0.2652361541     1     3     3     1
 -0.0000000105     1     3     3     2
 0.0000000029     1     3     3     7
 0.0000000105     1     3     4     1
 0.0013528906     1     3     4     2
 0.0010779461     1     3     4     7
 -0.0012687029     1     3     5     8
 -0.0000000133     1     3     6     8
 0.0000000006     1     3     7     4
 -0.0001057151     1     3     8     5
 -0.0000000007     1     3     8     6
 0.0000715150     1     4     2     3
 0.0000000105     1     4     3     1
 0.0020832077     1     4     3     2
 0.0010189206     1     4     3     7
 -0.2686658412     1     4     4     1
 0.0000000105     1     4     4     2
 -0.0000000031     1     4     4     7
 0.0000000027     1     4     5     8
 0.0022397155     1     4     6     8
 -0.0000000006     1     4     7     3
 0.0000000007     1     4     8     5
 -0.0000732983     1     4     8     6
 -0.0007828270     1     5     2     6
 -0.0006477973     1     5     3     8
 0.0000000008     1     5     4     8
 -0.2614787102     1     5     5     1
 0.0000000115     1     5     5     2
 -0.0000000008     1     5     5     7
 -0.0000000116     1     5     6     1
 -0.0027723900     1     5     6     2
 -0.0002437438     1     5     6     7
 0.0000017555     1     5     7     6
 0.0001057151     1     5     8     3
 -0.0000000007     1     5     8     4
 0.0007828270     1     6     2     5
 -0.0000000086     1     6     3     8
 0.0019616280     1     6     4     8
 -0.0000000116     1     6     5     1
 -0.0010246873     1     6     5     2
 -0.0003042536     1     6     5     7
 -0.2576701880     1     6     6     1
 -0.0000000115     1     6     6     2
 0.0000000009     1     6     6     7
 -0.0000017555     1     6     7     5
 0.0000000007     1     6     8     3
 0.0000732983     1     6     8     4
 -0.0000000202     1     7     2     1
 -0.0000000029     1     7     3     3
 -0.0010189206     1     7     3     4
 -0.0010779461     1     7     4     3
 0.0000000031     1     7     4     4
 0.0000000008     1     7     5     5
 0.0003042536     1     7     5     6
 0.0002437438     1     7     6     5
 -0.0000000009     1     7     6     6
 -0.1892685848     1     7     7     1
 -0.0000000026     1     7     8     8
 0.0006477973     1     8     3     5
 0.0000000086     1     8     3     6
 -0.0000000008     1     8     4     5
 -0.0019616280     1     8     4     6
 0.0012687029     1     8     5     3
 -0.0000000027     1     8     5     4
 0.0000000133     1     8     6     3
 -0.0022397155     1     8     6     4
 -0.1751001709     1     8     8     1
 -0.0000000300     1     8     8     2
 0.0000000026     1     8     8     7
 -0.2578296122     2     1     1     2
 -0.0000000202     2     1     1     7
 0.0000000105     2     1     3     3
 -0.0013528906     2     1     3     4
 -0.0020832077     2     1     4     3
 -0.0000000105     2     1     4     4
 -0.0000000115     2     1     5     5
 0.0027723900     2     1     5     6
 0.0010246873     2     1     6     5
 0.0000000115     2     1     6     6
 0.0000000300     2     1     8     8
 0.2578296122     2     2     1     1
 0.2686776894     2     2     3     3
 0.0000000105     2     2     3     4
 0.0000000105     2     2     4     3
 0.2652351665     2     2     4     4
 0.2576792460     2     2     5     5
 -0.0000000116     2     2     5     6
 -0.0000000116     2     2     6     5
 0.2614648922     2     2     6     6
 0.1892685966     2     2     7     7
 0.1848337661     2     2     8     8
 0.0000715150     2     3     1     4
 -0.0000000105     2     3     3     1
 -0.2686776894     2     3     3     2
 0.0009614774     2     3     3     7
 0.0020832077     2     3     4     1
 -0.0000000105     2     3     4     2
 -0.0000000032     2     3     4     7
 0.0000000038     2     3     5     8
 -0.0043418611     2     3     6     8
 0.0000000003     2     3     8     5
 -0.0002498383     2     3     8     6
 -0.0000715150     2     4     1     3
 0.0013528906     2     4     3     1
 -0.0000000105     2     4     3     2
 -0.0000000030     2     4     3     7
 0.0000000105     2     4     4     1
 -0.2652351665     2     4     4     2
 -0.0010205439     2     4     4     7
 0.0008185168     2     4     5     8
 -0.0000000068     2     4     6     8
 0.0002166866     2     4     8     5
 0.0000000002     2     4     8     6
 0.0007828270     2     5     1     6
 0.0000000019     2     5     3     8
 0.0002199537     2     5     4     8
 0.0000000115     2     5     5     1
 -0.2576792460     2     5     5     2
 -0.0002637993     2     5     5     7
 -0.0010246873     2     5     6     1
 0.0000000116     2     5     6     2
 0.0000000008     2     5     6     7
 -0.0000000003     2     5     8     3
 -0.0002166866     2     5     8     4
 -0.0007828270     2     6     1     5
 -0.0028093456     2     6     3     8
 -0.0000000059     2     6     4     8
 -0.0027723900     2     6     5     1
 0.0000000116     2     6     5     2
 0.0000000009     2     6     5     7
 -0.0000000115     2     6     6     1
 -0.2614648922     2     6     6     2
 0.0003242742     2     6     6     7
 0.0002498383     2     6     8     3
 -0.0000000002     2     6     8     4
 0.0000000202     2     7     1     1
 -0.0009614774     2     7     3     3
 0.0000000030     2     7     3     4
 0.0000000032     2     7     4     3
 0.0010205439     2     7     4     4
 0.0002637993     2     7     5     5
 -0.0000000009     2     7     5     6
 -0.0000000008     2     7     6     5
 -0.0003242742     2     7     6     6
 -0.1892685966     2     7     7     2
 -0.0008997848     2     7     8     8
 -0.0000000019     2     8     3     5
 0.0028093456     2     8     3     6
 -0.0002199537     2     8     4     5
 0.0000000059     2     8     4     6
 -0.0000000038     2     8     5     3
 -0.0008185168     2     8     5     4
 0.0043418611     2     8     6     3
 0.0000000068     2     8     6     4
 -0.0000000300     2     8     8     1
 -0.1848337661     2     8     8     2
 0.0008997848     2     8     8     7
 -0.2652361541     3     1     1     3
 0.0000000105     3     1     1     4
 -0.0000000105     3     1     2     3
 0.0013528906     3     1     2     4
 -0.0000715150     3     1     4     2
 0.0000000006     3     1     4     7
 -0.0001057151     3     1     5     8
 -0.0000000007     3     1     6     8
 0.0000000029     3     1     7     3
 0.0010779461     3     1     7     4
 -0.0012687029     3     1     8     5
 -0.0000000133     3     1     8     6
 -0.0000000105     3     2     1     3
 0.0020832077     3     2     1     4
 -0.2686776894     3     2     2     3
 -0.0000000105     3     2     2     4
 0.0000715150     3     2     4     1
 0.0000000003     3     2     5     8
 -0.0002498383     3     2     6     8
 0.0009614774     3     2     7     3
 -0.0000000032     3     2     7     4
 0.0000000038     3     2     8     5
 -0.0043418611     3     2     8     6
 0.2652361541     3     3     1     1
 0.0000000105     3     3     1     2
 -0.0000000029     3     3     1     7
 0.0000000105     3     3     2     1
 0.2686776894     3     3     2     2
 -0.0009614774     3     3     2     7
 0.2505466726     3     3     4     4
 0.2299771617     3     3     5     5
 0.0000000002     3     3     5     6
 0.0000000002     3     3     6     5
 0.2390049052     3     3     6     6
 -0.0000000029     3     3     7     1
 -0.0009614774     3     3     7     2
 0.1877393316     3     3     7     7
 0.1844936419     3     3     8     8
 -0.0000000105     3     4     1     1
 -0.0020832077     3     4     1     2
 -0.0010189206     3     4     1     7
 -0.0013528906     3     4     2     1
 0.0000000105     3     4     2     2
 0.0000000030     3     4     2     7
 -0.2505466726     3     4     4     3
 -0.0000000002     3     4     5     5
 -0.0279363952     3     4     5     6
 0.0188717847     3     4     6     5
 0.0000000002     3     4     6     6
 -0.0010779461     3     4     7     1
 0.0000000032     3     4     7     2
 -0.0000000005     3     4     8     8
 0.0006477973     3     5     1     8
 -0.0000000019     3     5     2     8
 -0.0455973761     3     5     4     6
 -0.2299771617     3     5     5     3
 0.0000000002     3     5     5     4
 -0.0000000002     3     5     6     3
 -0.0188717847     3     5     6     4
 -0.0000000022     3     5     7     8
 0.0012687029     3     5     8     1
 -0.0000000038     3     5     8     2
 -0.0000000022     3     5     8     7
 0.0000000086     3     6     1     8
 0.0028093456     3     6     2     8
 0.0455973761     3     6     4     5
 -0.0000000002     3     6     5     3
 0.0279363952     3     6     5     4
 -0.2390049052     3     6     6     3
 -0.0000000002     3     6     6     4
 0.0251464421     3     6     7     8
 0.0000000133     3     6     8     1
 0.0043418611     3     6     8     2
 0.0249277958     3     6     8     7
 0.0000000029     3     7     1     3
 0.0010189206     3     7     1     4
 0.0009614774     3     7     2     3
 -0.0000000030     3     7     2     4
 -0.0000000006     3     7     4     1
 0.0001122490     3     7     6     8
 -0.1877393316     3     7     7     3
 0.0000000022     3     7     8     5
 -0.0249277958     3     7     8     6
 -0.0006477973     3     8     1     5
 -0.0000000086     3     8     1     6
 0.0000000019     3     8     2     5
 -0.0028093456     3     8     2     6
 0.0001057151     3     8     5     1
 -0.0000000003     3     8     5     2
 0.0000000007     3     8     6     1
 0.0002498383     3     8     6     2
 -0.0001122490     3     8     6     7
 0.0000000022     3     8     7     5
 -0.0251464421     3     8     7     6
 -0.1844936419     3     8     8     3
 0.0000000005     3     8     8     4
 0.0000000105     4     1     1     3
 -0.2686658412     4     1     1     4
 0.0020832077     4     1     2     3
 0.0000000105     4     1     2     4
 0.0000715150     4     1     3     2
 -0.0000000006     4     1     3     7
 0.0000000007     4     1     5     8
 -0.0000732983     4     1     6     8
 0.0010189206     4     1     7     3
 -0.0000000031     4     1     7     4
 0.0000000027     4     1     8     5
 0.0022397155     4     1     8     6
 0.0013528906     4     2     1     3
 0.0000000105     4     2     1     4
 -0.0000000105     4     2     2     3
 -0.2652351665     4     2     2     4
 -0.0000715150     4     2     3     1
 0.0002166866     4     2     5     8
 0.0000000002     4     2     6     8
 -0.0000000030     4     2     7     3
 -0.0010205439     4     2     7     4
 0.0008185168     4     2     8     5
 -0.0000000068     4     2     8     6
 -0.0000000105     4     3     1     1
 -0.0013528906     4     3     1     2
 -0.0010779461     4     3     1     7
 -0.0020832077     4     3     2     1
 0.0000000105     4     3     2     2
 0.0000000032     4     3     2     7
 -0.2505466726     4     3     3     4
 -0.0000000002     4     3     5     5
 0.0188717847     4     3     5     6
 -0.0279363952     4     3     6     5
 0.0000000002     4     3     6     6
 -0.0010189206     4     3     7     1
 0.0000000030     4     3     7     2
 -0.0000000005     4     3     8     8
 0.2686658412     4     4     1     1
 -0.0000000105     4     4     1     2
 0.0000000031     4     4     1     7
 -0.0000000105     4     4     2     1
 0.2652351665     4     4     2     2
 0.0010205439     4     4     2     7
 0.2505466726     4     4     3     3
 0.2390632921     4     4     5     5
 -0.0000000002     4     4     5     6
 -0.0000000002     4     4     6     5
 0.2299618265     4     4     6     6
 0.0000000031     4     4     7     1
 0.0010205439     4     4     7     2
 0.1877393129     4     4     7     7
 0.1693100276     4     4     8     8
 -0.0000000008     4     5     1     8
 -0.0002199537     4     5     2     8
 0.0455973761     4     5     3     6
 0.0000000002     4     5     5     3
 -0.2390632921     4     5     5     4
 0.0279363952     4     5     6     3
 0.0000000002     4     5     6     4
 0.0251783029     4     5     7     8
 -0.0000000027     4     5     8     1
 -0.0008185168     4     5     8     2
 0.0249623171     4     5     8     7
 -0.0019616280     4     6     1     8
 0.0000000059     4     6     2     8
 -0.0455973761     4     6     3     5
 -0.0188717847     4     6     5     3
 0.0000000002     4     6     5     4
 -0.0000000002     4     6     6     3
 -0.2299618265     4     6     6     4
 0.0000000022     4     6     7     8
 -0.0022397155     4     6     8     1
 0.0000000068     4     6     8     2
 0.0000000022     4     6     8     7
 0.0010779461     4     7     1     3
 -0.0000000031     4     7     1     4
 -0.0000000032     4     7     2     3
 -0.0010205439     4     7     2     4
 0.0000000006     4     7     3     1
 0.0001137563     4     7     5     8
 -0.1877393129     4     7     7     4
 -0.0249623171     4     7     8     5
 -0.0000000022     4     7     8     6
 0.0000000008     4     8     1     5
 0.0019616280     4     8     1     6
 0.0002199537     4     8     2     5
 -0.0000000059     4     8     2     6
 -0.0000000007     4     8     5     1
 -0.0002166866     4     8     5     2
 -0.0001137563     4     8     5     7
 0.0000732983     4     8     6     1
 -0.0000000002     4     8     6     2
 -0.0251783029     4     8     7     5
 -0.0000000022     4     8     7     6
 0.0000000005     4     8     8     3
 -0.1693100276     4     8     8     4
 -0.2614787102     5     1     1     5
 -0.0000000116     5     1     1     6
 0.0000000115     5     1     2     5
 -0.0027723900     5     1     2     6
 0.0001057151     5     1     3     8
 -0.0000000007     5     1     4     8
 -0.0007828270     5     1     6     2
 0.0000017555     5     1     6     7
 -0.0000000008     5     1     7     5
 -0.0002437438     5     1     7     6
 -0.0006477973     5     1     8     3
 0.0000000008     5     1     8     4
 0.0000000115     5     2     1     5
 -0.0010246873     5     2     1     6
 -0.2576792460     5     2     2     5
 0.0000000116     5     2     2     6
 -0.0000000003     5     2     3     8
 -0.0002166866     5     2     4     8
 0.0007828270     5     2     6     1
 -0.0002637993     5     2     7     5
 0.0000000008     5     2     7     6
 0.0000000019     5     2     8     3
 0.0002199537     5     2     8     4
 0.0012687029     5     3     1     8
 -0.0000000038     5     3     2     8
 -0.2299771617     5     3     3     5
 -0.0000000002     5     3     3     6
 0.0000000002     5     3     4     5
 -0.0188717847     5     3     4     6
 -0.0455973761     5     3     6     4
 -0.0000000022     5     3     7     8
 0.0006477973     5     3     8     1
 -0.0000000019     5     3     8     2
 -0.0000000022     5     3     8     7
 -0.0000000027     5     4     1     8
 -0.0008185168     5     4     2     8
 0.0000000002     5     4     3     5
 0.0279363952     5     4     3     6
 -0.2390632921     5     4     4     5
 0.0000000002     5     4     4     6
 0.0455973761     5     4     6     3
 0.0249623171     5     4     7     8
 -0.0000000008     5     4     8     1
 -0.0002199537     5     4     8     2
 0.0251783029     5     4     8     7
 0.2614787102     5     5     1     1
 -0.0000000115     5     5     1     2
 0.0000000008     5     5     1     7
 -0.0000000115     5     5     2     1
 0.2576792460     5     5     2     2
 0.0002637993     5     5     2     7
 0.2299771617     5     5     3     3
 -0.0000000002     5     5     3     4
 -0.0000000002     5     5     4     3
 0.2390632921     5     5     4     4
 0.2441618283     5     5     6     6
 0.0000000008     5     5     7     1
 0.0002637993     5     5     7     2
 0.1840705989     5     5     7     7
 0.1696101994     5     5     8     8
 0.0000000116     5     6     1     1
 0.0010246873     5     6     1     2
 0.0003042536     5     6     1     7
 0.0027723900     5     6     2     1
 -0.0000000116     5     6     2     2
 -0.0000000009     5     6     2     7
 0.0000000002     5     6     3     3
 -0.0279363952     5     6     3     4
 0.0188717847     5     6     4     3
 -0.0000000002     5     6     4     4
 -0.2441618283     5     6     6     5
 0.0002437438     5     6     7     1
 -0.0000000008     5     6     7     2
 0.0000000004     5     6     8     8
 -0.0000000008     5     7     1     5
 -0.0003042536     5     7     1     6
 -0.0002637993     5     7     2     5
 0.0000000009     5     7     2     6
 -0.0001137563     5     7     4     8
 -0.0000017555     5     7     6     1
 -0.1840705989     5     7     7     5
 0.0000000022     5     7     8     3
 -0.0251783029     5     7     8     4
 -0.0012687029     5     8     1     3
 0.0000000027     5     8     1     4
 0.0000000038     5     8     2     3
 0.0008185168     5     8     2     4
 -0.0001057151     5     8     3     1
 0.0000000003     5     8     3     2
 0.0000000007     5     8     4     1
 0.0002166866     5     8     4     2
 0.0001137563     5     8     4     7
 0.0000000022     5     8     7     3
 -0.0249623171     5     8     7     4
 -0.1696101994     5     8     8     5
 -0.0000000004     5     8     8     6
 -0.0000000116     6     1     1     5
 -0.2576701880     6     1     1     6
 -0.0010246873     6     1     2     5
 -0.0000000115     6     1     2     6
 0.0000000007     6     1     3     8
 0.0000732983     6     1     4     8
 0.0007828270     6     1     5     2
 -0.0000017555     6     1     5     7
 -0.0003042536     6     1     7     5
 0.0000000009     6     1     7     6
 -0.0000000086     6     1     8     3
 0.0019616280     6     1     8     4
 -0.0027723900     6     2     1     5
 -0.0000000115     6     2     1     6
 0.0000000116     6     2     2     5
 -0.2614648922     6     2     2     6
 0.0002498383     6     2     3     8
 -0.0000000002     6     2     4     8
 -0.0007828270     6     2     5     1
 0.0000000009     6     2     7     5
 0.0003242742     6     2     7     6
 -0.0028093456     6     2     8     3
 -0.0000000059     6     2     8     4
 0.0000000133     6     3     1     8
 0.0043418611     6     3     2     8
 -0.0000000002     6     3     3     5
 -0.2390049052     6     3     3     6
 0.0279363952     6     3     4     5
 -0.0000000002     6     3     4     6
 0.0455973761     6     3     5     4
 0.0249277958     6     3     7     8
 0.0000000086     6     3     8     1
 0.0028093456     6     3     8     2
 0.0251464421     6     3     8     7
 -0.0022397155     6     4     1     8
 0.0000000068     6     4     2     8
 -0.0188717847     6     4     3     5
 -0.0000000002     6     4     3     6
 0.0000000002     6     4     4     5
 -0.2299618265     6     4     4     6
 -0.0455973761     6     4     5     3
 0.0000000022     6     4     7     8
 -0.0019616280     6     4     8     1
 0.0000000059     6     4     8     2
 0.0000000022     6     4     8     7
 0.0000000116     6     5     1     1
 0.0027723900     6     5     1     2
 0.0002437438     6     5     1     7
 0.0010246873     6     5     2     1
 -0.0000000116     6     5     2     2
 -0.0000000008     6     5     2     7
 0.0000000002     6     5     3     3
 0.0188717847     6     5     3     4
 -0.0279363952     6     5     4     3
 -0.0000000002     6     5     4     4
 -0.2441618283     6     5     5     6
 0.0003042536     6     5     7     1
 -0.0000000009     6     5     7     2
 0.0000000004     6     5     8     8
 0.2576701880     6     6     1     1
 0.0000000115     6     6     1     2
 -0.0000000009     6     6     1     7
 0.0000000115     6     6     2     1
 0.2614648922     6     6     2     2
 -0.0003242742     6     6     2     7
 0.2390049052     6     6     3     3
 0.0000000002     6     6     3     4
 0.0000000002     6     6     4     3
 0.2299618265     6     6     4     4
 0.2441618283     6     6     5     5
 -0.0000000009     6     6     7     1
 -0.0003242742     6     6     7     2
 0.1840706075     6     6     7     7
 0.1792854632     6     6     8     8
 -0.0002437438     6     7     1     5
 0.0000000009     6     7     1     6
 0.0000000008     6     7     2     5
 0.0003242742     6     7     2     6
 -0.0001122490     6     7     3     8
 0.0000017555     6     7     5     1
 -0.1840706075     6     7     7     6
 -0.0251464421     6     7     8     3
 -0.0000000022     6     7     8     4
 -0.0000000133     6     8     1     3
 0.0022397155     6     8     1     4
 -0.0043418611     6     8     2     3
 -0.0000000068     6     8     2     4
 -0.0000000007     6     8     3     1
 -0.0002498383     6     8     3     2
 0.0001122490     6     8     3     7
 -0.0000732983     6     8     4     1
 0.0000000002     6     8     4     2
 -0.0249277958     6     8     7     3
 -0.0000000022     6     8     7     4
 -0.0000000004     6     8     8     5
 -0.1792854632     6     8     8     6
 -0.0000000202     7     1     1     2
 -0.1892685848     7     1     1     7
 -0.0000000029     7     1     3     3
 -0.0010779461     7     1     3     4
 -0.0010189206     7     1     4     3
 0.0000000031     7     1     4     4
 0.0000000008     7     1     5     5
 0.0002437438     7     1     5     6
 0.0003042536     7     1     6     5
 -0.0000000009     7     1     6     6
 -0.0000000026     7     1     8     8
 0.0000000202     7     2     1     1
 -0.1892685966     7     2     2     7
 -0.0009614774     7     2     3     3
 0.0000000032     7     2     3     4
 0.0000000030     7     2     4     3
 0.0010205439     7     2     4     4
 0.0002637993     7     2     5     5
 -0.0000000008     7     2     5     6
 -0.0000000009     7     2     6     5
 -0.0003242742     7     2     6     6
 -0.0008997848     7     2     8     8
 -0.0000000006     7     3     1     4
 0.0000000029     7     3     3     1
 0.0009614774     7     3     3     2
 -0.1877393316     7     3     3     7
 0.0010189206     7     3     4     1
 -0.0000000030     7     3     4     2
 0.0000000022     7     3     5     8
 -0.0249277958     7     3     6     8
 0.0001122490     7     3     8     6
 0.0000000006     7     4     1     3
 0.0010779461     7     4     3     1
 -0.0000000032     7     4     3     2
 -0.0000000031     7     4     4     1
 -0.0010205439     7     4     4     2
 -0.1877393129     7     4     4     7
 -0.0249623171     7     4     5     8
 -0.0000000022     7     4     6     8
 0.0001137563     7     4     8     5
 -0.0000017555     7     5     1     6
 0.0000000022     7     5     3     8
 -0.0251783029     7     5     4     8
 -0.0000000008     7     5     5     1
 -0.0002637993     7     5     5     2
 -0.1840705989     7     5     5     7
 -0.0003042536     7     5     6     1
 0.0000000009     7     5     6     2
 -0.0001137563     7     5     8     4
 0.0000017555     7     6     1     5
 -0.0251464421     7     6     3     8
 -0.0000000022     7     6     4     8
 -0.0002437438     7     6     5     1
 0.0000000008     7     6     5     2
 0.0000000009     7     6     6     1
 0.0003242742     7     6     6     2
 -0.1840706075     7     6     6     7
 -0.0001122490     7     6     8     3
 0.1892685848     7     7     1     1
 0.1892685966     7     7     2     2
 0.1877393316     7     7     3     3
 0.1877393129     7     7     4     4
 0.1840705989     7     7     5     5
 0.1840706075     7     7     6     6
 0.1116630608     7     7     8     8
 -0.0000000022     7     8     3     5
 0.0251464421     7     8     3     6
 0.0251783029     7     8     4     5
 0.0000000022     7     8     4     6
 -0.0000000022     7     8     5     3
 0.0249623171     7     8     5     4
 0.0249277958     7     8     6     3
 0.0000000022     7     8     6     4
 0.0000000026     7     8     8     1
 0.0008997848     7     8     8     2
 -0.1116630608     7     8     8     7
 -0.1751001709     8     1     1     8
 -0.0000000300     8     1     2     8
 0.0012687029     8     1     3     5
 0.0000000133     8     1     3     6
 -0.0000000027     8     1     4     5
 -0.0022397155     8     1     4     6
 0.0006477973     8     1     5     3
 -0.0000000008     8     1     5     4
 0.0000000086     8     1     6     3
 -0.0019616280     8     1     6     4
 0.0000000026     8     1     7     8
 -0.0000000300     8     2     1     8
 -0.1848337661     8     2     2     8
 -0.0000000038     8     2     3     5
 0.0043418611     8     2     3     6
 -0.0008185168     8     2     4     5
 0.0000000068     8     2     4     6
 -0.0000000019     8     2     5     3
 -0.0002199537     8     2     5     4
 0.0028093456     8     2     6     3
 0.0000000059     8     2     6     4
 0.0008997848     8     2     7     8
 0.0001057151     8     3     1     5
 0.0000000007     8     3     1     6
 -0.0000000003     8     3     2     5
 0.0002498383     8     3     2     6
 -0.1844936419     8     3     3     8
 0.0000000005     8     3     4     8
 -0.0006477973     8     3     5     1
 0.0000000019     8     3     5     2
 0.0000000022     8     3     5     7
 -0.0000000086     8     3     6     1
 -0.0028093456     8     3     6     2
 -0.0251464421     8     3     6     7
 -0.0001122490     8     3     7     6
 -0.0000000007     8     4     1     5
 0.0000732983     8     4     1     6
 -0.0002166866     8     4     2     5
 -0.0000000002     8     4     2     6
 0.0000000005     8     4     3     8
 -0.1693100276     8     4     4     8
 0.0000000008     8     4     5     1
 0.0002199537     8     4     5     2
 -0.0251783029     8     4     5     7
 0.0019616280     8     4     6     1
 -0.0000000059     8     4     6     2
 -0.0000000022     8     4     6     7
 -0.0001137563     8     4     7     5
 -0.0001057151     8     5     1     3
 0.0000000007     8     5     1     4
 0.0000000003     8     5     2     3
 0.0002166866     8     5     2     4
 -0.0012687029     8     5     3     1
 0.0000000038     8     5     3     2
 0.0000000022     8     5     3     7
 0.0000000027     8     5     4     1
 0.0008185168     8     5     4     2
 -0.0249623171     8     5     4     7
 -0.1696101994     8     5     5     8
 -0.0000000004     8     5     6     8
 0.0001137563     8     5     7     4
 -0.0000000007     8     6     1     3
 -0.0000732983     8     6     1     4
 -0.0002498383     8     6     2     3
 0.0000000002     8     6     2     4
 -0.0000000133     8     6     3     1
 -0.0043418611     8     6     3     2
 -0.0249277958     8     6     3     7
 0.0022397155     8     6     4     1
 -0.0000000068     8     6     4     2
 -0.0000000022     8     6     4     7
 -0.0000000004     8     6     5     8
 -0.1792854632     8     6     6     8
 0.0001122490     8     6     7     3
 0.0000000026     8     7     1     8
 0.0008997848     8     7     2     8
 -0.0000000022     8     7     3     5
 0.0249277958     8     7     3     6
 0.0249623171     8     7     4     5
 0.0000000022     8     7     4     6
 -0.0000000022     8     7     5     3
 0.0251783029     8     7     5     4
 0.0251464421     8     7     6     3
 0.0000000022     8     7     6     4
 -0.1116630608     8     7     7     8
 0.1751001709     8     8     1     1
 0.0000000300     8     8     1     2
 -0.0000000026     8     8     1     7
 0.0000000300     8     8     2     1
 0.1848337661     8     8     2     2
 -0.0008997848     8     8     2     7
 0.1844936419     8     8     3     3
 -0.0000000005     8     8     3     4
 -0.0000000005     8     8     4     3
 0.1693100276     8     8     4     4
 0.1696101994     8     8     5     5
 0.0000000004     8     8     5     6
 0.0000000004     8     8     6     5
 0.1792854632     8     8     6     6
 -0.0000000026     8     8     7     1
 -0.0008997848     8     8     7     2
 0.1116630608     8     8     7     7
0.0 0 0 0 0
 0.2578296122     1     1     2     2
 0.0000000202     1     1     2     7
 0.2652361541     1     1     3     3
 -0.0000000105     1     1     3     4
 -0.0000000105     1     1     4     3
 0.2686658412     1     1     4     4
 0.2614787102     1     1     5     5
 0.0000000116     1     1     5     6
 0.0000000116     1     1     6     5
 0.2576701880     1     1     6     6
 0.0000000202     1     1     7     2
 0.1892685848     1     1     7     7
 0.1751001709     1     1     8     8
 -0.2578296122     1     2     2     1
 0.0000000105     1     2     3     3
 -0.0020832077     1     2     3     4
 -0.0013528906     1     2     4     3
 -0.0000000105     1     2     4     4
 -0.0000000115     1     2     5     5
 0.0010246873     1     2     5     6
 0.0027723900     1     2     6     5
 0.0000000115     1     2     6     6
 -0.0000000202     1     2     7     1
 0.0000000300     1     2     8     8
 -0.0000715150     1     3     2     4
 -0.2652361541     1     3     3     1
 -0.0000000105     1     3     3     2
 0.0000000029     1     3     3     7
 0.0000000105     1     3     4     1
 0.0013528906     1     3     4     2
 0.0010779461     1     3     4     7
 -0.0012687029     1     3     5     8
 -0.0000000133     1     3     6     8