&FCI NORB= 13,NELEC= 14,MS2=0,
 ORBSYM=1,1,1,1,1,1,1,1,1,1,1,1,1
 ISYM=1,
&END
 0.5376557519     1     1     2     2
 0.0103508103     1     1     2     4
 -0.0025073425     1     1     2    10
 0.8602872542     1     1     3     3
 -0.1163257458     1     1     3     7
 0.0967344688     1     1     3    11
 0.0103508103     1     1     4     2
 0.6447022014     1     1     4     4
 -0.1276512963     1     1     4    10
 0.7098056161     1     1     5     5
 0.0940473549     1     1     5    12
 -0.1937890578     1     1     5    13
 0.7098056161     1     1     6     6
 -0.1937890578     1     1     6    12
 -0.0940473549     1     1     6    13
 -0.1163257458     1     1     7     3
 0.6884455475     1     1     7     7
 -0.1429214776     1     1     7    11
 0.5941009461     1     1     8     8
 0.5941009461     1     1     9     9
 -0.0025073425     1     1    10     2
 -0.1276512963     1     1    10     4
 0.3790819020     1     1    10    10
 0.0967344688     1     1    11     3
 -0.1429214776     1     1    11     7
 0.4709221602     1     1    11    11
 0.0940473549     1     1    12     5
 -0.1937890578     1     1    12     6
 0.5644408090     1     1    12    12
 -0.1937890578     1     1    13     5
 -0.0940473549     1     1    13     6
 0.5644408090     1     1    13    13
 -0.5376557519     1     2     2     1
 -0.0150071399     1     2     2     3
 0.0210490225     1     2     2     7
 -0.0129483750     1     2     2    11
 -0.1189212169     1     2     3     4
 0.0681751063     1     2     3    10
 -0.0103508103     1     2     4     1
 -0.1195149995     1     2     4     3
 -0.2315411458     1     2     4     7
 0.0181648441     1     2     4    11
 -0.1632841835     1     2     5     8
 -0.0471185521     1     2     5     9
 -0.0471185521     1     2     6     8
 0.1632841835     1     2     6     9
 -0.2323551948     1     2     7     4
 0.0250939134     1     2     7    10
 -0.1626426046     1     2     8     5
 -0.0469334131     1     2     8     6
 -0.0169160443     1     2     8    12
 0.0980229143     1     2     8    13
 -0.0469334131     1     2     9     5
 0.1626426046     1     2     9     6
 -0.0980229143     1     2     9    12
 -0.0169160443     1     2     9    13
 0.0025073425     1     2    10     1
 0.0681841884     1     2    10     3
 0.0249149424     1     2    10     7
 -0.0619927316     1     2    10    11
 0.0186774730     1     2    11     4
 -0.0620996432     1     2    11    10
 -0.0170154069     1     2    12     8
 -0.0985986878     1     2    12     9
 0.0985986878     1     2    13     8
 -0.0170154069     1     2    13     9
 0.0150071399     1     3     2     2
 0.0005773114     1     3     2     4
 -0.0000775882     1     3     2    10
 -0.8602872542     1     3     3     1
 0.0257810826     1     3     3     7
 -0.0159019254     1     3     3    11
 0.1195149995     1     3     4     2
 -0.0109515393     1     3     4     4
 0.0020265695     1     3     4    10
 -0.0184276968     1     3     5     5
 -0.0088688684     1     3     5    12
 0.0182747261     1     3     5    13
 -0.0184276968     1     3     6     6
 0.0182747261     1     3     6    12
 0.0088688684     1     3     6    13
 0.1163257458     1     3     7     1
 -0.0254134739     1     3     7     7
 0.0101772579     1     3     7    11
 -0.0122691860     1     3     8     8
 -0.0122691860     1     3     9     9
 -0.0681841884     1     3    10     2
 0.0011489373     1     3    10     4
 -0.0017095862     1     3    10    10
 -0.0967344688     1     3    11     1
 0.0106868253     1     3    11     7
 -0.0055675857     1     3    11    11
 -0.0052032151     1     3    12     5
 0.0107214726     1     3    12     6
 -0.0126622519     1     3    12    12
 0.0107214726     1     3    13     5
 0.0052032151     1     3    13     6
 -0.0126622519     1     3    13    13
 -0.0103508103     1     4     2     1
 -0.0005773114     1     4     2     3
 0.0008114915     1     4     2     7
 -0.0005263960     1     4     2    11
 0.1189212169     1     4     3     2
 0.0010043004     1     4     3    10
 -0.6447022014     1     4     4     1
 0.0109515393     1     4     4     3
 -0.0015799337     1     4     4     7
 0.0062612791     1     4     4    11
 -0.0089290230     1     4     5     8
 -0.0025766283     1     4     5     9
 -0.0025766283     1     4     6     8
 0.0089290230     1     4     6     9
 0.2323551948     1     4     7     2
 -0.0015704334     1     4     7    10
 -0.0116388761     1     4     8     5
 -0.0033586045     1     4     8     6
 -0.0028719442     1     4     8    12
 0.0166419721     1     4     8    13
 -0.0033586045     1     4     9     5
 0.0116388761     1     4     9     6
 -0.0166419721     1     4     9    12
 -0.0028719442     1     4     9    13
 0.1276512963     1     4    10     1
 -0.0011489373     1     4    10     3
 -0.0013707114     1     4    10     7
 0.0023629839     1     4    10    11
 -0.0186774730     1     4    11     2
 0.0034879380     1     4    11    10
 -0.0015202812     1     4    12     8
 -0.0088095301     1     4    12     9
 0.0088095301     1     4    13     8
 -0.0015202812     1     4    13     9
 -0.0006199901     1     5     2     8
 -0.0001789092     1     5     2     9
 -0.0035359660     1     5     3    12
 0.0072860265     1     5     3    13
 0.0032366128     1     5     4     8
 0.0009339821     1     5     4     9
 -0.7098056161     1     5     5     1
 0.0184276968     1     5     5     3
 0.0165591049     1     5     5     7
 -0.0077279581     1     5     5    11
 -0.0022748861     1     5     7    12
 0.0046875113     1     5     7    13
 0.1626426046     1     5     8     2
 0.0116388761     1     5     8     4
 -0.0071385260     1     5     8    10
 0.0469334131     1     5     9     2
 0.0033586045     1     5     9     4
 -0.0020599485     1     5     9    10
 -0.0011058589     1     5    10     8
 -0.0003191152     1     5    10     9
 0.0020925308     1     5    11    12
 -0.0043117595     1     5    11    13
 -0.0940473549     1     5    12     1
 0.0052032151     1     5    12     3
 0.0029853225     1     5    12     7
 -0.0001725777     1     5    12    11
 0.1937890578     1     5    13     1
 -0.0107214726     1     5    13     3
 -0.0061513992     1     5    13     7
 0.0003556047     1     5    13    11
 -0.0001789092     1     6     2     8
 0.0006199901     1     6     2     9
 0.0072860265     1     6     3    12
 0.0035359660     1     6     3    13
 0.0009339821     1     6     4     8
 -0.0032366128     1     6     4     9
 -0.7098056161     1     6     6     1
 0.0184276968     1     6     6     3
 0.0165591049     1     6     6     7
 -0.0077279581     1     6     6    11
 0.0046875113     1     6     7    12
 0.0022748861     1     6     7    13
 0.0469334131     1     6     8     2
 0.0033586045     1     6     8     4
 -0.0020599485     1     6     8    10
 -0.1626426046     1     6     9     2
 -0.0116388761     1     6     9     4
 0.0071385260     1     6     9    10
 -0.0003191152     1     6    10     8
 0.0011058589     1     6    10     9
 -0.0043117595     1     6    11    12
 -0.0020925308     1     6    11    13
 0.1937890578     1     6    12     1
 -0.0107214726     1     6    12     3
 -0.0061513992     1     6    12     7
 0.0003556047     1     6    12    11
 0.0940473549     1     6    13     1
 -0.0052032151     1     6    13     3
 -0.0029853225     1     6    13     7
 0.0001725777     1     6    13    11
 -0.0210490225     1     7     2     2
 -0.0008114915     1     7     2     4
 0.0001856103     1     7     2    10
 0.1163257458     1     7     3     1
 -0.0257810826     1     7     3     3
 -0.0005278790     1     7     3    11
 0.2315411458     1     7     4     2
 0.0015799337     1     7     4     4
 -0.0001216162     1     7     4    10
 -0.0165591049     1     7     5     5
 -0.0053429594     1     7     5    12
 0.0110094226     1     7     5    13
 -0.0165591049     1     7     6     6
 0.0110094226     1     7     6    12
 0.0053429594     1     7     6    13
 -0.6884455475     1     7     7     1
 0.0254134739     1     7     7     3
 0.0092196605     1     7     7    11
 -0.0081184108     1     7     8     8
 -0.0081184108     1     7     9     9
 -0.0249149424     1     7    10     2
 0.0013707114     1     7    10     4
 0.0012443764     1     7    10    10
 0.1429214776     1     7    11     1
 -0.0106868253     1     7    11     3
 -0.0030670659     1     7    11    11
 -0.0029853225     1     7    12     5
 0.0061513992     1     7    12     6
 -0.0077913742     1     7    12    12
 0.0061513992     1     7    13     5
 0.0029853225     1     7    13     6
 -0.0077913742     1     7    13    13
 0.0006199901     1     8     2     5
 0.0001789092     1     8     2     6
 0.0001019871     1     8     2    12
 -0.0005909815     1     8     2    13
 -0.0032366128     1     8     4     5
 -0.0009339821     1     8     4     6
 -0.0012753260     1     8     4    12
 0.0073900948     1     8     4    13
 0.1632841835     1     8     5     2
 0.0089290230     1     8     5     4
 -0.0058777739     1     8     5    10
 0.0471185521     1     8     6     2
 0.0025766283     1     8     6     4
 -0.0016961361     1     8     6    10
 -0.5941009461     1     8     8     1
 0.0122691860     1     8     8     3
 0.0081184108     1     8     8     7
 -0.0008883943     1     8     8    11
 0.0011058589     1     8    10     5
 0.0003191152     1     8    10     6
 0.0004088474     1     8    10    12
 -0.0023691366     1     8    10    13
 0.0170154069     1     8    12     2
 0.0015202812     1     8    12     4
 -0.0010334590     1     8    12    10
 -0.0985986878     1     8    13     2
 -0.0088095301     1     8    13     4
 0.0059885553     1     8    13    10
 0.0001789092     1     9     2     5
 -0.0006199901     1     9     2     6
 0.0005909815     1     9     2    12
 0.0001019871     1     9     2    13
 -0.0009339821     1     9     4     5
 0.0032366128     1     9     4     6
 -0.0073900948     1     9     4    12
 -0.0012753260     1     9     4    13
 0.0471185521     1     9     5     2
 0.0025766283     1     9     5     4
 -0.0016961361     1     9     5    10
 -0.1632841835     1     9     6     2
 -0.0089290230     1     9     6     4
 0.0058777739     1     9     6    10
 -0.5941009461     1     9     9     1
 0.0122691860     1     9     9     3
 0.0081184108     1     9     9     7
 -0.0008883943     1     9     9    11
 0.0003191152     1     9    10     5
 -0.0011058589     1     9    10     6
 0.0023691366     1     9    10    12
 0.0004088474     1     9    10    13
 0.0985986878     1     9    12     2
 0.0088095301     1     9    12     4
 -0.0059885553     1     9    12    10
 0.0170154069     1     9    13     2
 0.0015202812     1     9    13     4
 -0.0010334590     1     9    13    10
 0.0025073425     1    10     2     1
 0.0000775882     1    10     2     3
 -0.0001856103     1    10     2     7
 0.0001136698     1    10     2    11
 -0.0681751063     1    10     3     2
 -0.0010043004     1    10     3     4
 0.1276512963     1    10     4     1
 -0.0020265695     1    10     4     3
 0.0001216162     1    10     4     7
 -0.0011545006     1    10     4    11
 0.0058777739     1    10     5     8
 0.0016961361     1    10     5     9
 0.0016961361     1    10     6     8
 -0.0058777739     1    10     6     9
 -0.0250939134     1    10     7     2
 0.0015704334     1    10     7     4
 0.0071385260     1    10     8     5
 0.0020599485     1    10     8     6
 0.0014477032     1    10     8    12
 -0.0083889643     1    10     8    13
 0.0020599485     1    10     9     5
 -0.0071385260     1    10     9     6
 0.0083889643     1    10     9    12
 0.0014477032     1    10     9    13
 -0.3790819020     1    10    10     1
 0.0017095862     1    10    10     3
 -0.0012443764     1    10    10     7
 0.0004962768     1    10    10    11
 0.0620996432     1    10    11     2
 -0.0034879380     1    10    11     4
 0.0010334590     1    10    12     8
 0.0059885553     1    10    12     9
 -0.0059885553     1    10    13     8
 0.0010334590     1    10    13     9
 0.0129483750     1    11     2     2
 0.0005263960     1    11     2     4
 -0.0001136698     1    11     2    10
 -0.0967344688     1    11     3     1
 0.0159019254     1    11     3     3
 0.0005278790     1    11     3     7
 -0.0181648441     1    11     4     2
 -0.0062612791     1    11     4     4
 0.0011545006     1    11     4    10
 0.0077279581     1    11     5     5
 0.0022570640     1    11     5    12
 -0.0046507880     1    11     5    13
 0.0077279581     1    11     6     6
 -0.0046507880     1    11     6    12
 -0.0022570640     1    11     6    13
 0.1429214776     1    11     7     1
 -0.0101772579     1    11     7     3
 -0.0092196605     1    11     7     7
 0.0008883943     1    11     8     8
 0.0008883943     1    11     9     9
 0.0619927316     1    11    10     2
 -0.0023629839     1    11    10     4
 -0.0004962768     1    11    10    10
 -0.4709221602     1    11    11     1
 0.0055675857     1    11    11     3
 0.0030670659     1    11    11     7
 0.0001725777     1    11    12     5
 -0.0003556047     1    11    12     6
 0.0007779878     1    11    12    12
 -0.0003556047     1    11    13     5
 -0.0001725777     1    11    13     6
 0.0007779878     1    11    13    13
 -0.0001019871     1    12     2     8
 -0.0005909815     1    12     2     9
 0.0035359660     1    12     3     5
 -0.0072860265     1    12     3     6
 0.0012753260     1    12     4     8
 0.0073900948     1    12     4     9
 -0.0940473549     1    12     5     1
 0.0088688684     1    12     5     3
 0.0053429594     1    12     5     7
 -0.0022570640     1    12     5    11
 0.1937890578     1    12     6     1
 -0.0182747261     1    12     6     3
 -0.0110094226     1    12     6     7
 0.0046507880     1    12     6    11
 0.0022748861     1    12     7     5
 -0.0046875113     1    12     7     6
 0.0169160443     1    12     8     2
 0.0028719442     1    12     8     4
 -0.0014477032     1    12     8    10
 0.0980229143     1    12     9     2
 0.0166419721     1    12     9     4
 -0.0083889643     1    12     9    10
 -0.0004088474     1    12    10     8
 -0.0023691366     1    12    10     9
 -0.0020925308     1    12    11     5
 0.0043117595     1    12    11     6
 -0.5644408090     1    12    12     1
 0.0126622519     1    12    12     3
 0.0077913742     1    12    12     7
 -0.0007779878     1    12    12    11
 0.0005909815     1    13     2     8
 -0.0001019871     1    13     2     9
 -0.0072860265     1    13     3     5
 -0.0035359660     1    13     3     6
 -0.0073900948     1    13     4     8
 0.0012753260     1    13     4     9
 0.1937890578     1    13     5     1
 -0.0182747261     1    13     5     3
 -0.0110094226     1    13     5     7
 0.0046507880     1    13     5    11
 0.0940473549     1    13     6     1
 -0.0088688684     1    13     6     3
 -0.0053429594     1    13     6     7
 0.0022570640     1    13     6    11
 -0.0046875113     1    13     7     5
 -0.0022748861     1    13     7     6
 -0.0980229143     1    13     8     2
 -0.0166419721     1    13     8     4
 0.0083889643     1    13     8    10
 0.0169160443     1    13     9     2
 0.0028719442     1    13     9     4
 -0.0014477032     1    13     9    10
 0.0023691366     1    13    10     8
 -0.0004088474     1    13    10     9
 0.0043117595     1    13    11     5
 0.0020925308     1    13    11     6
 -0.5644408090     1    13    13     1
 0.0126622519     1    13    13     3
 0.0077913742     1    13    13     7
 -0.0007779878     1    13    13    11
 -0.5376557519     2     1     1     2
 -0.0103508103     2     1     1     4
 0.0025073425     2     1     1    10
 -0.0150071399     2     1     3     2
 -0.1195149995     2     1     3     4
 0.0681841884     2     1     3    10
 -0.1189212169     2     1     4     3
 -0.2323551948     2     1     4     7
 0.0186774730     2     1     4    11
 -0.1626426046     2     1     5     8
 -0.0469334131     2     1     5     9
 -0.0469334131     2     1     6     8
 0.1626426046     2     1     6     9
 0.0210490225     2     1     7     2
 -0.2315411458     2     1     7     4
 0.0249149424     2     1     7    10
 -0.1632841835     2     1     8     5
 -0.0471185521     2     1     8     6
 -0.0170154069     2     1     8    12
 0.0985986878     2     1     8    13
 -0.0471185521     2     1     9     5
 0.1632841835     2     1     9     6
 -0.0985986878     2     1     9    12
 -0.0170154069     2     1     9    13
 0.0681751063     2     1    10     3
 0.0250939134     2     1    10     7
 -0.0620996432     2     1    10    11
 -0.0129483750     2     1    11     2
 0.0181648441     2     1    11     4
 -0.0619927316     2     1    11    10
 -0.0169160443     2     1    12     8
 -0.0980229143     2     1    12     9
 0.0980229143     2     1    13     8
 -0.0169160443     2     1    13     9
 0.5376557519     2     2     1     1
 0.0150071399     2     2     1     3
 -0.0210490225     2     2     1     7
 0.0129483750     2     2     1    11
 0.0150071399     2     2     3     1
 0.8607308563     2     2     3     3
 -0.1173047207     2     2     3     7
 0.0974015018     2     2     3    11
 0.6444037566     2     2     4     4
 -0.1275255634     2     2     4    10
 0.7106890810     2     2     5     5
 0.0944252114     2     2     5    12
 -0.1945676493     2     2     5    13
 0.7106890810     2     2     6     6
 -0.1945676493     2     2     6    12
 -0.0944252114     2     2     6    13
 -0.0210490225     2     2     7     1
 -0.1173047207     2     2     7     3
 0.6901491697     2     2     7     7
 -0.1439709274     2     2     7    11
 0.5937209143     2     2     8     8
 0.5937209143     2     2     9     9
 -0.1275255634     2     2    10     4
 0.3790602380     2     2    10    10
 0.0129483750     2     2    11     1
 0.0974015018     2     2    11     3
 -0.1439709274     2     2    11     7
 0.4715950483     2     2    11    11
 0.0944252114     2     2    12     5
 -0.1945676493     2     2    12     6
 0.5652594538     2     2    12    12
 -0.1945676493     2     2    13     5
 -0.0944252114     2     2    13     6
 0.5652594538     2     2    13    13
 -0.0150071399     2     3     1     2
 -0.0005773114     2     3     1     4
 0.0000775882     2     3     1    10
 -0.8607308563     2     3     3     2
 -0.0164142384     2     3     3     4
 0.0036691608     2     3     3    10
 0.1189212169     2     3     4     1
 0.0202703377     2     3     4     7
 -0.0049805387     2     3     4    11
 0.0228562363     2     3     5     8
 0.0065955731     2     3     5     9
 0.0065955731     2     3     6     8
 -0.0228562363     2     3     6     9
 0.1173047207     2     3     7     2
 0.0268070059     2     3     7     4
 -0.0056062592     2     3     7    10
 0.0150182883     2     3     8     5
 0.0043337939     2     3     8     6
 0.0025060659     2     3     8    12
 -0.0145218276     2     3     8    13
 0.0043337939     2     3     9     5
 -0.0150182883     2     3     9     6
 0.0145218276     2     3     9    12
 0.0025060659     2     3     9    13
 -0.0681751063     2     3    10     1
 -0.0022148818     2     3    10     7
 0.0044024832     2     3    10    11
 -0.0974015018     2     3    11     2
 -0.0091736057     2     3    11     4
 0.0063949691     2     3    11    10
 0.0024383865     2     3    12     8
 0.0141296483     2     3    12     9
 -0.0141296483     2     3    13     8
 0.0024383865     2     3    13     9
 0.0103508103     2     4     1     1
 0.0005773114     2     4     1     3
 -0.0008114915     2     4     1     7
 0.0005263960     2     4     1    11
 0.1195149995     2     4     3     1
 0.0164142384     2     4     3     3
 -0.0065725305     2     4     3     7
 0.0044983901     2     4     3    11
 -0.6444037566     2     4     4     2
 0.0000427190     2     4     4    10
 0.0205474637     2     4     5     5
 0.0079258940     2     4     5    12
 -0.0163316824     2     4     5    13
 0.0205474637     2     4     6     6
 -0.0163316824     2     4     6    12
 -0.0079258940     2     4     6    13
 0.2315411458     2     4     7     1
 -0.0268070059     2     4     7     3
 0.0214007103     2     4     7     7
 -0.0178695226     2     4     7    11
 0.0159444564     2     4     8     8
 0.0159444564     2     4     9     9
 0.1275255634     2     4    10     2
 -0.0005563034     2     4    10    10
 -0.0181648441     2     4    11     1
 0.0091736057     2     4    11     3
 -0.0069675374     2     4    11     7
 0.0062785778     2     4    11    11
 0.0054945535     2     4    12     5
 -0.0113217896     2     4    12     6
 0.0139748416     2     4    12    12
 -0.0113217896     2     4    13     5
 -0.0054945535     2     4    13     6
 0.0139748416     2     4    13    13
 0.0006199901     2     5     1     8
 0.0001789092     2     5     1     9
 0.0064811464     2     5     3     8
 0.0018702500     2     5     3     9
 0.0021953383     2     5     4    12
 -0.0045235992     2     5     4    13
 -0.7106890810     2     5     5     2
 -0.0205474637     2     5     5     4
 0.0090975594     2     5     5    10
 -0.0014366703     2     5     7     8
 -0.0004145767     2     5     7     9
 0.1632841835     2     5     8     1
 -0.0150182883     2     5     8     3
 -0.0011655845     2     5     8     7
 -0.0031661021     2     5     8    11
 0.0471185521     2     5     9     1
 -0.0043337939     2     5     9     3
 -0.0003363501     2     5     9     7
 -0.0009136350     2     5     9    11
 -0.0006601990     2     5    10    12
 0.0013603715     2     5    10    13
 -0.0011873497     2     5    11     8
 -0.0003426309     2     5    11     9
 -0.0944252114     2     5    12     2
 -0.0054945535     2     5    12     4
 0.0031902231     2     5    12    10
 0.1945676493     2     5    13     2
 0.0113217896     2     5    13     4
 -0.0065736068     2     5    13    10
 0.0001789092     2     6     1     8
 -0.0006199901     2     6     1     9
 0.0018702500     2     6     3     8
 -0.0064811464     2     6     3     9
 -0.0045235992     2     6     4    12
 -0.0021953383     2     6     4    13
 -0.7106890810     2     6     6     2
 -0.0205474637     2     6     6     4
 0.0090975594     2     6     6    10
 -0.0004145767     2     6     7     8
 0.0014366703     2     6     7     9
 0.0471185521     2     6     8     1
 -0.0043337939     2     6     8     3
 -0.0003363501     2     6     8     7
 -0.0009136350     2     6     8    11
 -0.1632841835     2     6     9     1
 0.0150182883     2     6     9     3
 0.0011655845     2     6     9     7
 0.0031661021     2     6     9    11
 0.0013603715     2     6    10    12
 0.0006601990     2     6    10    13
 -0.0003426309     2     6    11     8
 0.0011873497     2     6    11     9
 0.1945676493     2     6    12     2
 0.0113217896     2     6    12     4
 -0.0065736068     2     6    12    10
 0.0944252114     2     6    13     2
 0.0054945535     2     6    13     4
 -0.0031902231     2     6    13    10
 0.0210490225     2     7     1     2
 0.0008114915     2     7     1     4
 -0.0001856103     2     7     1    10
 0.1173047207     2     7     3     2
 0.0065725305     2     7     3     4
 -0.0030104446     2     7     3    10
 0.2323551948     2     7     4     1
 -0.0202703377     2     7     4     3
 -0.0107086107     2     7     4    11
 -0.0007152181     2     7     5     8
 -0.0002063889     2     7     5     9
 -0.0002063889     2     7     6     8
 0.0007152181     2     7     6     9
 -0.6901491697     2     7     7     2
 -0.0214007103     2     7     7     4
 0.0063456373     2     7     7    10
 0.0011655845     2     7     8     5
 0.0003363501     2     7     8     6
 0.0012168654     2     7     8    12
 -0.0070513354     2     7     8    13
 0.0003363501     2     7     9     5
 -0.0011655845     2     7     9     6
 0.0070513354     2     7     9    12
 0.0012168654     2     7     9    13
 -0.0250939134     2     7    10     1
 0.0022148818     2     7    10     3
 -0.0037744993     2     7    10    11
 0.1439709274     2     7    11     2
 0.0069675374     2     7    11     4
 -0.0083892412     2     7    11    10
 0.0001468125     2     7    12     8
 0.0008507301     2     7    12     9
 -0.0008507301     2     7    13     8
 0.0001468125     2     7    13     9
 -0.0006199901     2     8     1     5
 -0.0001789092     2     8     1     6
 -0.0001019871     2     8     1    12
 0.0005909815     2     8     1    13
 -0.0064811464     2     8     3     5
 -0.0018702500     2     8     3     6
 0.0000525814     2     8     3    12
 -0.0003046919     2     8     3    13
 0.1626426046     2     8     5     1
 -0.0228562363     2     8     5     3
 0.0007152181     2     8     5     7
 -0.0020417758     2     8     5    11
 0.0469334131     2     8     6     1
 -0.0065955731     2     8     6     3
 0.0002063889     2     8     6     7
 -0.0005891907     2     8     6    11
 0.0014366703     2     8     7     5
 0.0004145767     2     8     7     6
 0.0010395040     2     8     7    12
 -0.0060235840     2     8     7    13
 -0.5937209143     2     8     8     2
 -0.0159444564     2     8     8     4
 0.0075848073     2     8     8    10
 0.0011873497     2     8    11     5
 0.0003426309     2     8    11     6
 -0.0004817718     2     8    11    12
 0.0027917094     2     8    11    13
 0.0169160443     2     8    12     1
 -0.0024383865     2     8    12     3
 -0.0001468125     2     8    12     7
 -0.0004752912     2     8    12    11
 -0.0980229143     2     8    13     1
 0.0141296483     2     8    13     3
 0.0008507301     2     8    13     7
 0.0027541563     2     8    13    11
 -0.0001789092     2     9     1     5
 0.0006199901     2     9     1     6
 -0.0005909815     2     9     1    12
 -0.0001019871     2     9     1    13
 -0.0018702500     2     9     3     5
 0.0064811464     2     9     3     6
 0.0003046919     2     9     3    12
 0.0000525814     2     9     3    13
 0.0469334131     2     9     5     1
 -0.0065955731     2     9     5     3
 0.0002063889     2     9     5     7
 -0.0005891907     2     9     5    11
 -0.1626426046     2     9     6     1
 0.0228562363     2     9     6     3
 -0.0007152181     2     9     6     7
 0.0020417758     2     9     6    11
 0.0004145767     2     9     7     5
 -0.0014366703     2     9     7     6
 0.0060235840     2     9     7    12
 0.0010395040     2     9     7    13
 -0.5937209143     2     9     9     2
 -0.0159444564     2     9     9     4
 0.0075848073     2     9     9    10
 0.0003426309     2     9    11     5
 -0.0011873497     2     9    11     6
 -0.0027917094     2     9    11    12
 -0.0004817718     2     9    11    13
 0.0980229143     2     9    12     1
 -0.0141296483     2     9    12     3
 -0.0008507301     2     9    12     7
 -0.0027541563     2     9    12    11
 0.0169160443     2     9    13     1
 -0.0024383865     2     9    13     3
 -0.0001468125     2     9    13     7
 -0.0004752912     2     9    13    11
 -0.0025073425     2    10     1     1
 -0.0000775882     2    10     1     3
 0.0001856103     2    10     1     7
 -0.0001136698     2    10     1    11
 -0.0681841884     2    10     3     1
 -0.0036691608     2    10     3     3
 0.0030104446     2    10     3     7
 -0.0020822368     2    10     3    11
 0.1275255634     2    10     4     2
 -0.0000427190     2    10     4     4
 -0.0090975594     2    10     5     5
 -0.0039254451     2    10     5    12
 0.0080885667     2    10     5    13
 -0.0090975594     2    10     6     6
 0.0080885667     2    10     6    12
 0.0039254451     2    10     6    13
 -0.0249149424     2    10     7     1
 0.0056062592     2    10     7     3
 -0.0063456373     2    10     7     7
 0.0048648826     2    10     7    11
 -0.0075848073     2    10     8     8
 -0.0075848073     2    10     9     9
 -0.3790602380     2    10    10     2
 0.0005563034     2    10    10     4
 0.0619927316     2    10    11     1
 -0.0063949691     2    10    11     3
 0.0083892412     2    10    11     7
 -0.0054271852     2    10    11    11
 -0.0031902231     2    10    12     5
 0.0065736068     2    10    12     6
 -0.0076786966     2    10    12    12
 0.0065736068     2    10    13     5
 0.0031902231     2    10    13     6
 -0.0076786966     2    10    13    13
 -0.0129483750     2    11     1     2
 -0.0005263960     2    11     1     4
 0.0001136698     2    11     1    10
 -0.0974015018     2    11     3     2
 -0.0044983901     2    11     3     4
 0.0020822368     2    11     3    10
 -0.0186774730     2    11     4     1
 0.0049805387     2    11     4     3
 0.0107086107     2    11     4     7
 0.0020417758     2    11     5     8
 0.0005891907     2    11     5     9
 0.0005891907     2    11     6     8
 -0.0020417758     2    11     6     9
 0.1439709274     2    11     7     2
 0.0178695226     2    11     7     4
 -0.0048648826     2    11     7    10
 0.0031661021     2    11     8     5
 0.0009136350     2    11     8     6
 -0.0000032389     2    11     8    12
 0.0000187683     2    11     8    13
 0.0009136350     2    11     9     5
 -0.0031661021     2    11     9     6
 -0.0000187683     2    11     9    12
 -0.0000032389     2    11     9    13
 0.0620996432     2    11    10     1
 -0.0044024832     2    11    10     3
 0.0037744993     2    11    10     7
 -0.4715950483     2    11    11     2
 -0.0062785778     2    11    11     4
 0.0054271852     2    11    11    10
 0.0004752912     2    11    12     8
 0.0027541563     2    11    12     9
 -0.0027541563     2    11    13     8
 0.0004752912     2    11    13     9
 0.0001019871     2    12     1     8
 0.0005909815     2    12     1     9
 -0.0000525814     2    12     3     8
 -0.0003046919     2    12     3     9
 -0.0021953383     2    12     4     5