&FCI NORB= 13,NELEC= 14,MS2=0,
 ORBSYM=1,1,1,1,1,1,1,1,1,1,1,1,1
 ISYM=1,
&END
 0.1611882936     1     1     2     2
 -0.0000649753     1     1     2     4
 0.0000000001     1     1     2     5
 -0.0016718291     1     1     2    10
 0.0000000001     1     1     2    11
 0.5386202021     1     1     3     3
 -0.0000000394     1     1     3     4
 0.0027004148     1     1     3     5
 0.0000000012     1     1     3    10
 0.0618924822     1     1     3    11
 -0.0000649753     1     1     4     2
 -0.0000000394     1     1     4     3
 0.5415057275     1     1     4     4
 0.0000000034     1     1     4     5
 -0.0157025562     1     1     4    10
 -0.0000000063     1     1     4    11
 0.0000000001     1     1     5     2
 0.0027004148     1     1     5     3
 0.0000000034     1     1     5     4
 0.5003400137     1     1     5     5
 0.0000000359     1     1     5    10
 0.1814149469     1     1     5    11
 0.5093042709     1     1     6     6
 -0.0000000277     1     1     6     8
 -0.0000000242     1     1     6     9
 -0.0000049854     1     1     6    12
 -0.2037942031     1     1     6    13
 0.5093042709     1     1     7     7
 -0.0000000242     1     1     7     8
 0.0000000276     1     1     7     9
 -0.2037942031     1     1     7    12
 0.0000049854     1     1     7    13
 -0.0000000277     1     1     8     6
 -0.0000000242     1     1     8     7
 0.5130034305     1     1     8     8
 0.0000000141     1     1     8    12
 0.0000000157     1     1     8    13
 -0.0000000242     1     1     9     6
 0.0000000276     1     1     9     7
 0.5130034305     1     1     9     9
 -0.0000000165     1     1     9    12
 0.0000000141     1     1     9    13
 -0.0016718291     1     1    10     2
 0.0000000012     1     1    10     3
 -0.0157025562     1     1    10     4
 0.0000000359     1     1    10     5
 0.5256179070     1     1    10    10
 0.0000000229     1     1    10    11
 0.0000000001     1     1    11     2
 0.0618924822     1     1    11     3
 -0.0000000063     1     1    11     4
 0.1814149469     1     1    11     5
 0.0000000229     1     1    11    10
 0.5176364289     1     1    11    11
 -0.0000049854     1     1    12     6
 -0.2037942031     1     1    12     7
 0.0000000141     1     1    12     8
 -0.0000000165     1     1    12     9
 0.4995068899     1     1    12    12
 -0.2037942031     1     1    13     6
 0.0000049854     1     1    13     7
 0.0000000157     1     1    13     8
 0.0000000141     1     1    13     9
 0.4995068899     1     1    13    13
 -0.1611882936     1     2     2     1
 -0.0000248906     1     2     2     3
 -0.0016302726     1     2     2     5
 -0.0000000001     1     2     2    10
 -0.0018354919     1     2     2    11
 -0.0000000002     1     2     3     3
 0.3789191874     1     2     3     4
 -0.0111016620     1     2     3    10
 0.0000649753     1     2     4     1
 0.3789192359     1     2     4     3
 0.0000000002     1     2     4     4
 -0.0331684718     1     2     4     5
 0.0613418216     1     2     4    11
 -0.0000000001     1     2     5     1
 -0.0331705493     1     2     5     4
 -0.0000000004     1     2     5     5
 -0.0000000001     1     2     5     6
 -0.3444769091     1     2     5    10
 -0.0000000001     1     2     5    11
 -0.0000000001     1     2     6     5
 -0.0000000012     1     2     6     6
 -0.0000000013     1     2     6     7
 0.2650456938     1     2     6     8
 0.2320965630     1     2     6     9
 0.0000000005     1     2     6    12
 0.0000000004     1     2     6    13
 -0.0000000013     1     2     7     6
 0.0000000016     1     2     7     7
 0.2320965630     1     2     7     8
 -0.2650456938     1     2     7     9
 -0.0000000006     1     2     7    12
 0.0000000005     1     2     7    13
 0.2650327641     1     2     8     6
 0.2320852407     1     2     8     7
 0.0000000012     1     2     8     8
 0.0000000012     1     2     8     9
 -0.0000000001     1     2     8    10
 -0.1350645682     1     2     8    12
 -0.1542311308     1     2     8    13
 0.2320852407     1     2     9     6
 -0.2650327641     1     2     9     7
 0.0000000012     1     2     9     8
 -0.0000000016     1     2     9     9
 -0.0000000001     1     2     9    10
 0.1542311308     1     2     9    12
 -0.1350645682     1     2     9    13
 0.0016718291     1     2    10     1
 -0.0111003168     1     2    10     3
 -0.3444431060     1     2    10     5
 -0.0000000001     1     2    10     8
 -0.0000000001     1     2    10     9
 0.0000000004     1     2    10    10
 -0.2212428492     1     2    10    11
 -0.0000000001     1     2    11     1
 0.0613394615     1     2    11     4
 -0.0000000001     1     2    11     5
 -0.2212814402     1     2    11    10
 0.0000000005     1     2    12     6
 -0.0000000006     1     2    12     7
 -0.1350773502     1     2    12     8
 0.1542457266     1     2    12     9
 0.0000000003     1     2    12    12
 -0.0000000003     1     2    12    13
 0.0000000004     1     2    13     6
 0.0000000005     1     2    13     7
 -0.1542457266     1     2    13     8
 -0.1350773502     1     2    13     9
 -0.0000000003     1     2    13    12
 -0.0000000003     1     2    13    13
 0.0000248906     1     3     2     2
 -0.0000000485     1     3     2     4
 -0.0000013452     1     3     2    10
 -0.5386202021     1     3     3     1
 0.0000000002     1     3     3     2
 -0.0009353954     1     3     3     5
 -0.0013761779     1     3     3    11
 0.0000000394     1     3     4     1
 -0.3789192359     1     3     4     2
 -0.0000692860     1     3     4     4
 -0.0014077734     1     3     4    10
 -0.0000000001     1     3     4    11
 -0.0027004148     1     3     5     1
 -0.0174392697     1     3     5     5
 -0.0000000009     1     3     5    10
 -0.0212542631     1     3     5    11
 -0.0184899195     1     3     6     6
 0.0000000007     1     3     6     8
 0.0000000007     1     3     6     9
 0.0000005623     1     3     6    12
 0.0229847205     1     3     6    13
 -0.0184899195     1     3     7     7
 0.0000000007     1     3     7     8
 -0.0000000007     1     3     7     9
 0.0229847205     1     3     7    12
 -0.0000005623     1     3     7    13
 0.0000000007     1     3     8     6
 0.0000000007     1     3     8     7
 -0.0186056299     1     3     8     8
 -0.0000000008     1     3     8    12
 -0.0000000008     1     3     8    13
 0.0000000007     1     3     9     6
 -0.0000000007     1     3     9     7
 -0.0186056299     1     3     9     9
 0.0000000010     1     3     9    12
 -0.0000000008     1     3     9    13
 -0.0000000012     1     3    10     1
 0.0111003168     1     3    10     2
 -0.0007136875     1     3    10     4
 -0.0000000009     1     3    10     5
 -0.0191810955     1     3    10    10
 -0.0000000011     1     3    10    11
 -0.0618924822     1     3    11     1
 -0.0000000001     1     3    11     4
 -0.0144197960     1     3    11     5
 -0.0000000008     1     3    11    10
 -0.0181649487     1     3    11    11
 0.0000003791     1     3    12     6
 0.0154981777     1     3    12     7
 -0.0000000005     1     3    12     8
 0.0000000007     1     3    12     9
 -0.0198814857     1     3    12    12
 0.0154981777     1     3    13     6
 -0.0000003791     1     3    13     7
 -0.0000000005     1     3    13     8
 -0.0000000005     1     3    13     9
 -0.0198814857     1     3    13    13
 0.0000649753     1     4     2     1
 0.0000000485     1     4     2     3
 0.0000020775     1     4     2     5
 0.0000023601     1     4     2    11
 0.0000000394     1     4     3     1
 -0.3789191874     1     4     3     2
 -0.0006940859     1     4     3    10
 -0.5415057275     1     4     4     1
 -0.0000000002     1     4     4     2
 0.0000692860     1     4     4     3
 -0.0001375162     1     4     4     5
 -0.0001479881     1     4     4    11
 -0.0000000034     1     4     5     1
 0.0331705493     1     4     5     2
 0.0000000009     1     4     5     5
 0.0183256558     1     4     5    10
 0.0000000011     1     4     5    11
 0.0000000011     1     4     6     6
 0.0000000001     1     4     6     7
 -0.0139599797     1     4     6     8
 -0.0122245462     1     4     6     9
 -0.0000000012     1     4     6    13
 0.0000000001     1     4     7     6
 0.0000000008     1     4     7     7
 -0.0122245462     1     4     7     8
 0.0139599797     1     4     7     9
 -0.0000000011     1     4     7    12
 -0.0140865191     1     4     8     6
 -0.0123353548     1     4     8     7
 0.0000000009     1     4     8     8
 0.0153619346     1     4     8    12
 0.0175418956     1     4     8    13
 -0.0123353548     1     4     9     6
 0.0140865191     1     4     9     7
 0.0000000011     1     4     9     9
 -0.0175418956     1     4     9    12
 0.0153619346     1     4     9    13
 0.0157025562     1     4    10     1
 0.0007136875     1     4    10     3
 0.0183618221     1     4    10     5
 0.0000000010     1     4    10    10
 0.0226404619     1     4    10    11
 0.0000000063     1     4    11     1
 -0.0613394615     1     4    11     2
 0.0000000001     1     4    11     3
 0.0000000008     1     4    11     5
 0.0157736595     1     4    11    10
 0.0000000010     1     4    11    11
 -0.0000000008     1     4    12     7
 0.0104571086     1     4    12     8
 -0.0119410421     1     4    12     9
 0.0000000010     1     4    12    12
 -0.0000000008     1     4    13     6
 0.0119410421     1     4    13     8
 0.0104571086     1     4    13     9
 0.0000000010     1     4    13    13
 -0.0000000001     1     5     2     1
 0.0016302726     1     5     2     2
 -0.0000020775     1     5     2     4
 -0.0000338031     1     5     2    10
 -0.0027004148     1     5     3     1
 0.0009353954     1     5     3     3
 -0.0068344671     1     5     3    11
 -0.0000000034     1     5     4     1
 0.0331684718     1     5     4     2
 0.0001375162     1     5     4     4
 -0.0000361663     1     5     4    10
 0.0000000003     1     5     4    11
 -0.5003400137     1     5     5     1
 0.0000000004     1     5     5     2
 0.0174392697     1     5     5     3
 -0.0000000009     1     5     5     4
 0.0027485650     1     5     5    11
 0.0000000001     1     5     6     2
 0.0014196827     1     5     6     6
 -0.0000000179     1     5     6    12
 -0.0007303662     1     5     6    13
 0.0014196827     1     5     7     7
 -0.0007303662     1     5     7    12
 0.0000000179     1     5     7    13
 0.0014342214     1     5     8     8
 0.0014342214     1     5     9     9
 -0.0000000359     1     5    10     1
 0.3444431060     1     5    10     2
 0.0000000009     1     5    10     3
 -0.0183618221     1     5    10     4
 0.0030783357     1     5    10    10
 0.0000000003     1     5    10    11
 -0.1814149469     1     5    11     1
 0.0000000001     1     5    11     2
 0.0144197960     1     5    11     3
 -0.0000000008     1     5    11     4
 0.0000000001     1     5    11    10
 0.0084645657     1     5    11    11
 -0.0000000193     1     5    12     6
 -0.0007856551     1     5    12     7
 0.0017626936     1     5    12    12
 -0.0007856551     1     5    13     6
 0.0000000193     1     5    13     7
 0.0017626936     1     5    13    13
 0.0000129297     1     6     2     8
 0.0000113223     1     6     2     9
 0.0000001832     1     6     3    12
 0.0074865428     1     6     3    13
 0.0001265394     1     6     4     8
 0.0001108086     1     6     4     9
 -0.0000000004     1     6     4    13
 0.0000000001     1     6     5     2
 0.0000000014     1     6     5    12
 0.0000552889     1     6     5    13
 -0.5093042709     1     6     6     1
 0.0000000012     1     6     6     2
 0.0184899195     1     6     6     3
 -0.0000000011     1     6     6     4
 -0.0014196827     1     6     6     5
 0.0031580814     1     6     6    11
 0.0000000013     1     6     7     2
 -0.0000000001     1     6     7     4
 0.0000000277     1     6     8     1
 -0.2650327641     1     6     8     2
 -0.0000000007     1     6     8     3
 0.0140865191     1     6     8     4
 -0.0013221497     1     6     8    10
 -0.0000000002     1     6     8    11
 0.0000000242     1     6     9     1
 -0.2320852407     1     6     9     2
 -0.0000000007     1     6     9     3
 0.0123353548     1     6     9     4
 -0.0011577868     1     6     9    10
 -0.0000000002     1     6     9    11
 -0.0000007230     1     6    10     8
 -0.0000006330     1     6    10     9
 -0.0000000176     1     6    11    12
 -0.0007191939     1     6    11    13
 0.0000049854     1     6    12     1
 -0.0000000005     1     6    12     2
 -0.0000003791     1     6    12     3
 0.0000000193     1     6    12     5
 -0.0000001484     1     6    12    11
 0.2037942031     1     6    13     1
 -0.0000000004     1     6    13     2
 -0.0154981777     1     6    13     3
 0.0000000008     1     6    13     4
 0.0007856551     1     6    13     5
 -0.0060628657     1     6    13    11
 0.0000113223     1     7     2     8
 -0.0000129297     1     7     2     9
 0.0074865428     1     7     3    12
 -0.0000001832     1     7     3    13
 0.0001108086     1     7     4     8
 -0.0001265394     1     7     4     9
 -0.0000000003     1     7     4    12
 0.0000552889     1     7     5    12
 -0.0000000014     1     7     5    13
 0.0000000013     1     7     6     2
 -0.0000000001     1     7     6     4
 -0.5093042709     1     7     7     1
 -0.0000000016     1     7     7     2
 0.0184899195     1     7     7     3
 -0.0000000008     1     7     7     4
 -0.0014196827     1     7     7     5
 0.0031580814     1     7     7    11
 0.0000000242     1     7     8     1
 -0.2320852407     1     7     8     2
 -0.0000000007     1     7     8     3
 0.0123353548     1     7     8     4
 -0.0011577868     1     7     8    10
 -0.0000000002     1     7     8    11
 -0.0000000276     1     7     9     1
 0.2650327641     1     7     9     2
 0.0000000007     1     7     9     3
 -0.0140865191     1     7     9     4
 0.0013221497     1     7     9    10
 0.0000000002     1     7     9    11
 -0.0000006330     1     7    10     8
 0.0000007230     1     7    10     9
 -0.0007191939     1     7    11    12
 0.0000000176     1     7    11    13
 0.2037942031     1     7    12     1
 0.0000000006     1     7    12     2
 -0.0154981777     1     7    12     3
 0.0000000008     1     7    12     4
 0.0007856551     1     7    12     5
 -0.0060628657     1     7    12    11
 -0.0000049854     1     7    13     1
 -0.0000000005     1     7    13     2
 0.0000003791     1     7    13     3
 -0.0000000193     1     7    13     5
 0.0000001484     1     7    13    11
 -0.0000129297     1     8     2     6
 -0.0000113223     1     8     2     7
 0.0000127820     1     8     2    12
 0.0000145958     1     8     2    13
 -0.0000000003     1     8     3    12
 -0.0000000003     1     8     3    13
 -0.0001265394     1     8     4     6
 -0.0001108086     1     8     4     7
 0.0049048260     1     8     4    12
 0.0056008535     1     8     4    13
 0.0000000277     1     8     6     1
 -0.2650456938     1     8     6     2
 -0.0000000007     1     8     6     3
 0.0139599797     1     8     6     4
 -0.0013214267     1     8     6    10
 -0.0000000002     1     8     6    11
 0.0000000242     1     8     7     1
 -0.2320965630     1     8     7     2
 -0.0000000007     1     8     7     3
 0.0122245462     1     8     7     4
 -0.0011571538     1     8     7    10
 -0.0000000002     1     8     7    11
 -0.5130034305     1     8     8     1
 -0.0000000012     1     8     8     2
 0.0186056299     1     8     8     3
 -0.0000000009     1     8     8     4
 -0.0014342214     1     8     8     5
 0.0035287854     1     8     8    11
 -0.0000000012     1     8     9     2
 0.0000000001     1     8    10     2
 0.0000007230     1     8    10     6
 0.0000006330     1     8    10     7
 -0.0001975597     1     8    10    12
 -0.0002255947     1     8    10    13
 0.0000000001     1     8    11    13
 -0.0000000141     1     8    12     1
 0.1350773502     1     8    12     2
 0.0000000005     1     8    12     3
 -0.0104571086     1     8    12     4
 0.0006616438     1     8    12    10
 0.0000000002     1     8    12    11
 -0.0000000157     1     8    13     1
 0.1542457266     1     8    13     2
 0.0000000005     1     8    13     3
 -0.0119410421     1     8    13     4
 0.0007555355     1     8    13    10
 0.0000000003     1     8    13    11
 -0.0000113223     1     9     2     6
 0.0000129297     1     9     2     7
 -0.0000145958     1     9     2    12
 0.0000127820     1     9     2    13
 0.0000000003     1     9     3    12
 -0.0000000003     1     9     3    13
 -0.0001108086     1     9     4     6
 0.0001265394     1     9     4     7
 -0.0056008535     1     9     4    12
 0.0049048260     1     9     4    13
 0.0000000242     1     9     6     1
 -0.2320965630     1     9     6     2
 -0.0000000007     1     9     6     3
 0.0122245462     1     9     6     4
 -0.0011571538     1     9     6    10
 -0.0000000002     1     9     6    11
 -0.0000000276     1     9     7     1
 0.2650456938     1     9     7     2
 0.0000000007     1     9     7     3
 -0.0139599797     1     9     7     4
 0.0013214267     1     9     7    10
 0.0000000002     1     9     7    11
 -0.0000000012     1     9     8     2
 -0.5130034305     1     9     9     1
 0.0000000016     1     9     9     2
 0.0186056299     1     9     9     3
 -0.0000000011     1     9     9     4
 -0.0014342214     1     9     9     5
 0.0035287854     1     9     9    11
 0.0000000001     1     9    10     2
 0.0000006330     1     9    10     6
 -0.0000007230     1     9    10     7
 0.0002255947     1     9    10    12
 -0.0001975597     1     9    10    13
 -0.0000000001     1     9    11    12
 0.0000000165     1     9    12     1
 -0.1542457266     1     9    12     2
 -0.0000000007     1     9    12     3
 0.0119410421     1     9    12     4
 -0.0007555355     1     9    12    10
 -0.0000000003     1     9    12    11
 -0.0000000141     1     9    13     1
 0.1350773502     1     9    13     2
 0.0000000005     1     9    13     3
 -0.0104571086     1     9    13     4
 0.0006616438     1     9    13    10
 0.0000000002     1     9    13    11
 0.0016718291     1    10     2     1
 0.0000000001     1    10     2     2
 0.0000013452     1    10     2     3
 0.0000338031     1    10     2     5
 0.0000385910     1    10     2    11
 -0.0000000012     1    10     3     1
 0.0111016620     1    10     3     2
 0.0006940859     1    10     3     4
 -0.0000000003     1    10     3    11
 0.0157025562     1    10     4     1
 0.0014077734     1    10     4     3
 0.0000361663     1    10     4     5
 0.0068668024     1    10     4    11
 -0.0000000359     1    10     5     1
 0.3444769091     1    10     5     2
 0.0000000009     1    10     5     3
 -0.0183256558     1    10     5     4
 0.0000000002     1    10     5    11
 0.0013214267     1    10     6     8
 0.0011571538     1    10     6     9
 0.0011571538     1    10     7     8
 -0.0013214267     1    10     7     9
 0.0000000001     1    10     8     2
 0.0013221497     1    10     8     6
 0.0011577868     1    10     8     7
 -0.0008592035     1    10     8    12
 -0.0009811302     1    10     8    13
 0.0000000001     1    10     9     2
 0.0011577868     1    10     9     6
 -0.0013221497     1    10     9     7
 0.0009811302     1    10     9    12
 -0.0008592035     1    10     9    13
 -0.5256179070     1    10    10     1
 -0.0000000004     1    10    10     2
 0.0191810955     1    10    10     3
 -0.0000000010     1    10    10     4
 -0.0030783357     1    10    10     5
 0.0020704746     1    10    10    11
 -0.0000000229     1    10    11     1
 0.2212814402     1    10    11     2
 0.0000000008     1    10    11     3
 -0.0157736595     1    10    11     4
 -0.0000000001     1    10    11     5
 0.0000000003     1    10    11    11
 -0.0006616438     1    10    12     8
 0.0007555355     1    10    12     9
 -0.0007555355     1    10    13     8
 -0.0006616438     1    10    13     9
 -0.0000000001     1    11     2     1
 0.0018354919     1    11     2     2
 -0.0000023601     1    11     2     4
 -0.0000385910     1    11     2    10
 -0.0618924822     1    11     3     1
 0.0013761779     1    11     3     3
 0.0068344671     1    11     3     5
 0.0000000003     1    11     3    10
 0.0000000063     1    11     4     1
 -0.0613418216     1    11     4     2
 0.0000000001     1    11     4     3
 0.0001479881     1    11     4     4
 -0.0000000003     1    11     4     5
 -0.0068668024     1    11     4    10
 -0.1814149469     1    11     5     1
 0.0000000001     1    11     5     2
 0.0212542631     1    11     5     3
 -0.0000000011     1    11     5     4
 -0.0027485650     1    11     5     5
 -0.0000000002     1    11     5    10
 -0.0031580814     1    11     6     6
 0.0000000002     1    11     6     8
 0.0000000002     1    11     6     9
 0.0000001308     1    11     6    12
 0.0053436718     1    11     6    13
 -0.0031580814     1    11     7     7
 0.0000000002     1    11     7     8
 -0.0000000002     1    11     7     9
 0.0053436718     1    11     7    12
 -0.0000001308     1    11     7    13
 0.0000000002     1    11     8     6
 0.0000000002     1    11     8     7
 -0.0035287854     1    11     8     8
 -0.0000000002     1    11     8    12
 -0.0000000002     1    11     8    13
 0.0000000002     1    11     9     6
 -0.0000000002     1    11     9     7
 -0.0035287854     1    11     9     9
 0.0000000002     1    11     9    12
 -0.0000000002     1    11     9    13
 -0.0000000229     1    11    10     1
 0.2212428492     1    11    10     2
 0.0000000011     1    11    10     3
 -0.0226404619     1    11    10     4
 -0.0000000003     1    11    10     5
 -0.0020704746     1    11    10    10
 -0.5176364289     1    11    11     1
 0.0181649487     1    11    11     3
 -0.0000000010     1    11    11     4
 -0.0084645657     1    11    11     5
 -0.0000000003     1    11    11    10
 0.0000001484     1    11    12     6
 0.0060628657     1    11    12     7
 -0.0000000002     1    11    12     8
 0.0000000003     1    11    12     9
 -0.0068189192     1    11    12    12
 0.0060628657     1    11    13     6
 -0.0000001484     1    11    13     7
 -0.0000000003     1    11    13     8
 -0.0000000002     1    11    13     9
 -0.0068189192     1    11    13    13
 -0.0000127820     1    12     2     8
 0.0000145958     1    12     2     9
 -0.0000001832     1    12     3     6
 -0.0074865428     1    12     3     7
 0.0000000003     1    12     3     8
 -0.0000000003     1    12     3     9
 0.0000000003     1    12     4     7
 -0.0049048260     1    12     4     8
 0.0056008535     1    12     4     9
 -0.0000000014     1    12     5     6
 -0.0000552889     1    12     5     7
 0.0000049854     1    12     6     1
 -0.0000000005     1    12     6     2
 -0.0000005623     1    12     6     3
 0.0000000179     1    12     6     5
 -0.0000001308     1    12     6    11
 0.2037942031     1    12     7     1
 0.0000000006     1    12     7     2
 -0.0229847205     1    12     7     3
 0.0000000011     1    12     7     4
 0.0007303662     1    12     7     5
 -0.0053436718     1    12     7    11
 -0.0000000141     1    12     8     1
 0.1350645682     1    12     8     2
 0.0000000008     1    12     8     3
 -0.0153619346     1    12     8     4
 0.0008592035     1    12     8    10
 0.0000000002     1    12     8    11
 0.0000000165     1    12     9     1
 -0.1542311308     1    12     9     2
 -0.0000000010     1    12     9     3
 0.0175418956     1    12     9     4
 -0.0009811302     1    12     9    10
 -0.0000000002     1    12     9    11
 0.0001975597     1    12    10     8
 -0.0002255947     1    12    10     9
 0.0000000176     1    12    11     6
 0.0007191939     1    12    11     7
 0.0000000001     1    12    11     9
 -0.4995068899     1    12    12     1
 -0.0000000003     1    12    12     2
 0.0198814857     1    12    12     3
 -0.0000000010     1    12    12     4
 -0.0017626936     1    12    12     5
 0.0068189192     1    12    12    11
 0.0000000003     1    12    13     2
 -0.0000145958     1    13     2     8
 -0.0000127820     1    13     2     9
 -0.0074865428     1    13     3     6
 0.0000001832     1    13     3     7
 0.0000000003     1    13     3     8
 0.0000000003     1    13     3     9
 0.0000000004     1    13     4     6
 -0.0056008535     1    13     4     8
 -0.0049048260     1    13     4     9
 -0.0000552889     1    13     5     6
 0.0000000014     1    13     5     7
 0.2037942031     1    13     6     1
 -0.0000000004     1    13     6     2
 -0.0229847205     1    13     6     3
 0.0000000012     1    13     6     4
 0.0007303662     1    13     6     5
 -0.0053436718     1    13     6    11
 -0.0000049854     1    13     7     1
 -0.0000000005     1    13     7     2
 0.0000005623     1    13     7     3
 -0.0000000179     1    13     7     5
 0.0000001308     1    13     7    11
 -0.0000000157     1    13     8     1
 0.1542311308     1    13     8     2
 0.0000000008     1    13     8     3
 -0.0175418956     1    13     8     4
 0.0009811302     1    13     8    10
 0.0000000002     1    13     8    11
 -0.0000000141     1    13     9     1
 0.1350645682     1    13     9     2
 0.0000000008     1    13     9     3
 -0.0153619346     1    13     9     4
 0.0008592035     1    13     9    10
 0.0000000002     1    13     9    11
 0.0002255947     1    13    10     8
 0.0001975597     1    13    10     9
 0.0007191939     1    13    11     6
 -0.0000000176     1    13    11     7
 -0.0000000001     1    13    11     8
 0.0000000003     1    13    12     2
 -0.4995068899     1    13    13     1
 0.0000000003     1    13    13     2
 0.0198814857     1    13    13     3
 -0.0000000010     1    13    13     4
 -0.0017626936     1    13    13     5
 0.0068189192     1    13    13    11
 -0.1611882936     2     1     1     2
 0.0000649753     2     1     1     4
 -0.0000000001     2     1     1     5
 0.0016718291     2     1     1    10
 -0.0000000001     2     1     1    11
 -0.0000248906     2     1     3     2
 -0.0000000002     2     1     3     3
 0.3789192359     2     1     3     4
 -0.0111003168     2     1     3    10
 0.3789191874     2     1     4     3
 0.0000000002     2     1     4     4
 -0.0331705493     2     1     4     5
 0.0613394615     2     1     4    11
 -0.0016302726     2     1     5     2
 -0.0331684718     2     1     5     4
 -0.0000000004     2     1     5     5
 -0.0000000001     2     1     5     6
 -0.3444431060     2     1     5    10
 -0.0000000001     2     1     5    11
 -0.0000000001     2     1     6     5
 -0.0000000012     2     1     6     6
 -0.0000000013     2     1     6     7
 0.2650327641     2     1     6     8
 0.2320852407     2     1     6     9
 0.0000000005     2     1     6    12
 0.0000000004     2     1     6    13
 -0.0000000013     2     1     7     6
 0.0000000016     2     1     7     7
 0.2320852407     2     1     7     8
 -0.2650327641     2     1     7     9
 -0.0000000006     2     1     7    12
 0.0000000005     2     1     7    13
 0.2650456938     2     1     8     6
 0.2320965630     2     1     8     7
 0.0000000012     2     1     8     8
 0.0000000012     2     1     8     9
 -0.0000000001     2     1     8    10
 -0.1350773502     2     1     8    12
 -0.1542457266     2     1     8    13
 0.2320965630     2     1     9     6
 -0.2650456938     2     1     9     7
 0.0000000012     2     1     9     8
 -0.0000000016     2     1     9     9
 -0.0000000001     2     1     9    10
 0.1542457266     2     1     9    12
 -0.1350773502     2     1     9    13
 -0.0000000001     2     1    10     2
 -0.0111016620     2     1    10     3
 -0.3444769091     2     1    10     5
 -0.0000000001     2     1    10     8
 -0.0000000001     2     1    10     9
 0.0000000004     2     1    10    10
 -0.2212814402     2     1    10    11
 -0.0018354919     2     1    11     2
 0.0613418216     2     1    11     4
 -0.0000000001     2     1    11     5
 -0.2212428492     2     1    11    10
 0.0000000005     2     1    12     6
 -0.0000000006     2     1    12     7
 -0.1350645682     2     1    12     8
 0.1542311308     2     1    12     9
 0.0000000003     2     1    12    12
 -0.0000000003     2     1    12    13
 0.0000000004     2     1    13     6
 0.0000000005     2     1    13     7
 -0.1542311308     2     1    13     8
 -0.1350645682     2     1    13     9
 -0.0000000003     2     1    13    12
 -0.0000000003     2     1    13    13
 0.1611882936     2     2     1     1
 0.0000248906     2     2     1     3
 0.0016302726     2     2     1     5
 0.0000000001     2     2     1    10
 0.0018354919     2     2     1    11
 0.0000248906     2     2     3     1
 0.5386203520     2     2     3     3
 0.0000000394     2     2     3     4
 0.0027017575     2     2     3     5
 -0.0000000011     2     2     3    10
 0.0618942588     2     2     3    11
 0.0000000394     2     2     4     3
 0.5415057592     2     2     4     4
 -0.0000000034     2     2     4     5
 -0.0157048663     2     2     4    10
 0.0000000064     2     2     4    11
 0.0016302726     2     2     5     1
 0.0027017575     2     2     5     3
 -0.0000000034     2     2     5     4
 0.5003723317     2     2     5     5
 -0.0000000358     2     2     5    10
 0.1814519969     2     2     5    11
 0.5093220007     2     2     6     6
 0.0000000276     2     2     6     8
 0.0000000242     2     2     6     9
 -0.0000049859     2     2     6    12
 -0.2038141843     2     2     6    13
 0.5093220007     2     2     7     7
 0.0000000242     2     2     7     8
 -0.0000000277     2     2     7     9
 -0.2038141843     2     2     7    12
 0.0000049859     2     2     7    13
 0.0000000276     2     2     8     6
 0.0000000242     2     2     8     7