&FCI NORB= 13,NELEC= 14,MS2=0,
 ORBSYM=1,1,1,1,1,1,1,1,1,1,1,1,1
 ISYM=1,
&END
 0.3022562164     1     1     2     2
 0.0000000009     1     1     2     3
 -0.0013584873     1     1     2     4
 -0.0000000046     1     1     2     5
 0.0060711938     1     1     2    10
 -0.0059935327     1     1     2    11
 0.0000000009     1     1     3     2
 0.6136642094     1     1     3     3
 -0.0000004275     1     1     3     4
 -0.0276903856     1     1     3     5
 -0.0000001763     1     1     3    10
 -0.0000000454     1     1     3    11
 -0.0013584873     1     1     4     2
 -0.0000004275     1     1     4     3
 0.6037016798     1     1     4     4
 -0.0000002372     1     1     4     5
 0.0563662925     1     1     4    10
 0.1134499722     1     1     4    11
 -0.0000000046     1     1     5     2
 -0.0276903856     1     1     5     3
 -0.0000002372     1     1     5     4
 0.6020489915     1     1     5     5
 0.0000003992     1     1     5    10
 -0.0000002833     1     1     5    11
 0.5656982373     1     1     6     6
 -0.0000004267     1     1     6     8
 0.0000000573     1     1     6     9
 0.1266190391     1     1     6    12
 -0.1624604021     1     1     6    13
 0.5656982373     1     1     7     7
 -0.0000000573     1     1     7     8
 -0.0000004267     1     1     7     9
 0.1624604021     1     1     7    12
 0.1266190391     1     1     7    13
 -0.0000004267     1     1     8     6
 -0.0000000573     1     1     8     7
 0.5842511686     1     1     8     8
 -0.0000002302     1     1     8    12
 0.0000002254     1     1     8    13
 0.0000000573     1     1     9     6
 -0.0000004267     1     1     9     7
 0.5842511686     1     1     9     9
 -0.0000002254     1     1     9    12
 -0.0000002302     1     1     9    13
 0.0060711938     1     1    10     2
 -0.0000001763     1     1    10     3
 0.0563662925     1     1    10     4
 0.0000003992     1     1    10     5
 0.6306115616     1     1    10    10
 -0.1902140806     1     1    10    11
 -0.0059935327     1     1    11     2
 -0.0000000454     1     1    11     3
 0.1134499722     1     1    11     4
 -0.0000002833     1     1    11     5
 -0.1902140806     1     1    11    10
 0.5107694385     1     1    11    11
 0.1266190391     1     1    12     6
 0.1624604021     1     1    12     7
 -0.0000002302     1     1    12     8
 -0.0000002254     1     1    12     9
 0.5744097604     1     1    12    12
 -0.1624604021     1     1    13     6
 0.1266190391     1     1    13     7
 0.0000002254     1     1    13     8
 -0.0000002302     1     1    13     9
 0.5744097604     1     1    13    13
 -0.3022562164     1     2     2     1
 -0.0011859605     1     2     2     3
 -0.0000000010     1     2     2     4
 0.0061352541     1     2     2     5
 0.0000000046     1     2     2    10
 -0.0000000045     1     2     2    11
 -0.0000000009     1     2     3     1
 -0.0000000004     1     2     3     3
 0.2858982815     1     2     3     4
 0.1178996552     1     2     3    10
 0.0301766239     1     2     3    11
 0.0013584873     1     2     4     1
 0.2859106731     1     2     4     3
 0.0000000003     1     2     4     4
 0.1585400532     1     2     4     5
 -0.0000000002     1     2     4    11
 0.0000000046     1     2     5     1
 0.1585996270     1     2     5     4
 -0.0000000002     1     2     5     5
 -0.2670787767     1     2     5    10
 0.1893531312     1     2     5    11
 -0.0000000003     1     2     6     6
 0.2853716544     1     2     6     8
 -0.0383565552     1     2     6     9
 -0.0000000002     1     2     6    12
 0.0000000004     1     2     6    13
 -0.0000000003     1     2     7     7
 0.0383565552     1     2     7     8
 0.2853716544     1     2     7     9
 -0.0000000004     1     2     7    12
 -0.0000000002     1     2     7    13
 0.2852584356     1     2     8     6
 0.0383413376     1     2     8     7
 0.0000000002     1     2     8     8
 0.1537332138     1     2     8    12
 -0.1506125206     1     2     8    13
 -0.0383413376     1     2     9     6
 0.2852584356     1     2     9     7
 0.0000000002     1     2     9     9
 0.1506125206     1     2     9    12
 0.1537332138     1     2     9    13
 -0.0060711938     1     2    10     1
 0.1178464589     1     2    10     3
 -0.2668334907     1     2    10     5
 0.0000000003     1     2    10    10
 -0.0000000001     1     2    10    11
 0.0059935327     1     2    11     1
 0.0302298094     1     2    11     3
 -0.0000000002     1     2    11     4
 0.1891085509     1     2    11     5
 -0.0000000001     1     2    11    10
 -0.0000000008     1     2    11    11
 -0.0000000002     1     2    12     6
 -0.0000000004     1     2    12     7
 0.1538302818     1     2    12     8
 0.1507076181     1     2    12     9
 -0.0000000009     1     2    12    12
 0.0000000004     1     2    13     6
 -0.0000000002     1     2    13     7
 -0.1507076181     1     2    13     8
 0.1538302818     1     2    13     9
 -0.0000000009     1     2    13    13
 -0.0000000009     1     3     2     1
 0.0011859605     1     3     2     2
 -0.0000123916     1     3     2     4
 0.0000531963     1     3     2    10
 -0.0000531855     1     3     2    11
 -0.6136642094     1     3     3     1
 0.0000000004     1     3     3     2
 -0.0000000011     1     3     3     4
 0.0069521244     1     3     3     5
 0.0000000061     1     3     3    10
 -0.0000000064     1     3     3    11
 0.0000004275     1     3     4     1
 -0.2859106731     1     3     4     2
 -0.0019268738     1     3     4     4
 0.0000000052     1     3     4     5
 0.0064701349     1     3     4    10
 -0.0063430223     1     3     4    11
 0.0276903856     1     3     5     1
 0.0000000057     1     3     5     4
 -0.0201769529     1     3     5     5
 -0.0000000157     1     3     5    10
 0.0000000169     1     3     5    11
 -0.0167337607     1     3     6     6
 0.0000000143     1     3     6     8
 -0.0000000019     1     3     6     9
 -0.0140288391     1     3     6    12
 0.0179999062     1     3     6    13
 -0.0167337607     1     3     7     7
 0.0000000019     1     3     7     8
 0.0000000143     1     3     7     9
 -0.0179999062     1     3     7    12
 -0.0140288391     1     3     7    13
 0.0000000128     1     3     8     6
 0.0000000017     1     3     8     7
 -0.0179553922     1     3     8     8
 0.0000000120     1     3     8    12
 -0.0000000118     1     3     8    13
 -0.0000000017     1     3     9     6
 0.0000000128     1     3     9     7
 -0.0179553922     1     3     9     9
 0.0000000118     1     3     9    12
 0.0000000120     1     3     9    13
 0.0000001763     1     3    10     1
 -0.1178464589     1     3    10     2
 0.0068637335     1     3    10     4
 -0.0000000133     1     3    10     5
 -0.0166903879     1     3    10    10
 0.0190183290     1     3    10    11
 0.0000000454     1     3    11     1
 -0.0302298094     1     3    11     2
 -0.0053083027     1     3    11     4
 0.0000000107     1     3    11     5
 0.0133632757     1     3    11    10
 -0.0164261404     1     3    11    11
 -0.0088482246     1     3    12     6
 -0.0113528433     1     3    12     7
 0.0000000085     1     3    12     8
 0.0000000083     1     3    12     9
 -0.0192778323     1     3    12    12
 0.0113528433     1     3    13     6
 -0.0088482246     1     3    13     7
 -0.0000000083     1     3    13     8
 0.0000000085     1     3    13     9
 -0.0192778323     1     3    13    13
 0.0013584873     1     4     2     1
 0.0000000010     1     4     2     2
 0.0000123916     1     4     2     3
 -0.0000595738     1     4     2     5
 0.0000004275     1     4     3     1
 -0.2858982815     1     4     3     2
 0.0000000011     1     4     3     3
 -0.0000000005     1     4     3     5
 -0.0003935986     1     4     3    10
 -0.0010347196     1     4     3    11
 -0.6037016798     1     4     4     1
 -0.0000000003     1     4     4     2
 0.0019268738     1     4     4     3
 -0.0019796864     1     4     4     5
 -0.0000000018     1     4     4    10
 0.0000000029     1     4     4    11
 0.0000002372     1     4     5     1
 -0.1585996270     1     4     5     2
 -0.0000000057     1     4     5     3
 0.0000000141     1     4     5     5
 0.0205567433     1     4     5    10
 -0.0199169656     1     4     5    11
 0.0000000130     1     4     6     6
 -0.0172821357     1     4     6     8
 0.0023228768     1     4     6     9
 0.0000000101     1     4     6    12
 -0.0000000130     1     4     6    13
 0.0000000130     1     4     7     7
 -0.0023228768     1     4     7     8
 -0.0172821357     1     4     7     9
 0.0000000130     1     4     7    12
 0.0000000101     1     4     7    13
 -0.0181411527     1     4     8     6
 -0.0024383366     1     4     8     7
 0.0000000155     1     4     8     8
 -0.0176600543     1     4     8    12
 0.0173015657     1     4     8    13
 0.0024383366     1     4     9     6
 -0.0181411527     1     4     9     7
 0.0000000155     1     4     9     9
 -0.0173015657     1     4     9    12
 -0.0176600543     1     4     9    13
 -0.0563662925     1     4    10     1
 -0.0068637335     1     4    10     3
 0.0183830956     1     4    10     5
 0.0000000171     1     4    10    10
 -0.0000000156     1     4    10    11
 -0.1134499722     1     4    11     1
 0.0000000002     1     4    11     2
 0.0053083027     1     4    11     3
 -0.0134259065     1     4    11     5
 -0.0000000123     1     4    11    10
 0.0000000111     1     4    11    11
 0.0000000072     1     4    12     6
 0.0000000093     1     4    12     7
 -0.0120911141     1     4    12     8
 -0.0118456717     1     4    12     9
 0.0000000165     1     4    12    12
 -0.0000000093     1     4    13     6
 0.0000000072     1     4    13     7
 0.0118456717     1     4    13     8
 -0.0120911141     1     4    13     9
 0.0000000165     1     4    13    13
 0.0000000046     1     5     2     1
 -0.0061352541     1     5     2     2
 0.0000595738     1     5     2     4
 -0.0002452860     1     5     2    10
 0.0002445803     1     5     2    11
 0.0276903856     1     5     3     1
 -0.0069521244     1     5     3     3
 0.0000000005     1     5     3     4
 -0.0000000024     1     5     3    10
 0.0000000062     1     5     3    11
 0.0000002372     1     5     4     1
 -0.1585400532     1     5     4     2
 -0.0000000052     1     5     4     3
 0.0019796864     1     5     4     4
 0.0021736477     1     5     4    10
 -0.0064910591     1     5     4    11
 -0.6020489915     1     5     5     1
 0.0000000002     1     5     5     2
 0.0201769529     1     5     5     3
 -0.0000000141     1     5     5     4
 -0.0000000021     1     5     5    10
 -0.0000000023     1     5     5    11
 -0.0066689328     1     5     6     6
 0.0000000007     1     5     6     8
 -0.0025139786     1     5     6    12
 0.0032255968     1     5     6    13
 -0.0066689328     1     5     7     7
 0.0000000007     1     5     7     9
 -0.0032255968     1     5     7    12
 -0.0025139786     1     5     7    13
 0.0000000015     1     5     8     6
 0.0000000002     1     5     8     7
 -0.0064082482     1     5     8     8
 0.0000000026     1     5     8    12
 -0.0000000026     1     5     8    13
 -0.0000000002     1     5     9     6
 0.0000000015     1     5     9     7
 -0.0064082482     1     5     9     9
 0.0000000026     1     5     9    12
 0.0000000026     1     5     9    13
 -0.0000003992     1     5    10     1
 0.2668334907     1     5    10     2
 0.0000000133     1     5    10     3
 -0.0183830956     1     5    10     4
 -0.0147471540     1     5    10    10
 0.0031811878     1     5    10    11
 0.0000002833     1     5    11     1
 -0.1891085509     1     5    11     2
 -0.0000000107     1     5    11     3
 0.0134259065     1     5    11     4
 0.0100707994     1     5    11    10
 0.0021537908     1     5    11    11
 -0.0025046931     1     5    12     6
 -0.0032136829     1     5    12     7
 0.0000000018     1     5    12     8
 0.0000000018     1     5    12     9
 -0.0077434929     1     5    12    12
 0.0032136829     1     5    13     6
 -0.0025046931     1     5    13     7
 -0.0000000018     1     5    13     8
 0.0000000018     1     5    13     9
 -0.0077434929     1     5    13    13
 0.0001132188     1     6     2     8
 -0.0000152176     1     6     2     9
 0.0000000015     1     6     3     8
 -0.0000000002     1     6     3     9
 -0.0051806145     1     6     3    12
 0.0066470629     1     6     3    13
 0.0008590170     1     6     4     8
 -0.0001154598     1     6     4     9
 0.0000000029     1     6     4    12
 -0.0000000037     1     6     4    13
 -0.0000000008     1     6     5     8
 0.0000000002     1     6     5     9
 -0.0000092855     1     6     5    12
 0.0000119139     1     6     5    13
 -0.5656982373     1     6     6     1
 0.0000000003     1     6     6     2
 0.0167337607     1     6     6     3
 -0.0000000130     1     6     6     4
 0.0066689328     1     6     6     5
 -0.0000000018     1     6     6    10
 -0.0000000058     1     6     6    11
 0.0000004267     1     6     8     1
 -0.2852584356     1     6     8     2
 -0.0000000128     1     6     8     3
 0.0181411527     1     6     8     4
 -0.0000000015     1     6     8     5
 0.0088362340     1     6     8    10
 0.0019590881     1     6     8    11
 -0.0000000573     1     6     9     1
 0.0383413376     1     6     9     2
 0.0000000017     1     6     9     3
 -0.0024383366     1     6     9     4
 0.0000000002     1     6     9     5
 -0.0011876705     1     6     9    10
 -0.0002633193     1     6     9    11
 -0.0001610717     1     6    10     8
 0.0000216495     1     6    10     9
 0.0000000011     1     6    10    12
 -0.0000000014     1     6    10    13
 0.0000859233     1     6    11     8
 -0.0000115488     1     6    11     9
 -0.0000000003     1     6    11    12
 0.0000000004     1     6    11    13
 -0.1266190391     1     6    12     1
 0.0000000002     1     6    12     2
 0.0088482246     1     6    12     3
 -0.0000000072     1     6    12     4
 0.0025046931     1     6    12     5
 -0.0000000027     1     6    12    10
 -0.0000000028     1     6    12    11
 0.1624604021     1     6    13     1
 -0.0000000004     1     6    13     2
 -0.0113528433     1     6    13     3
 0.0000000093     1     6    13     4
 -0.0032136829     1     6    13     5
 0.0000000035     1     6    13    10
 0.0000000036     1     6    13    11
 0.0000152176     1     7     2     8
 0.0001132188     1     7     2     9
 0.0000000002     1     7     3     8
 0.0000000015     1     7     3     9
 -0.0066470629     1     7     3    12
 -0.0051806145     1     7     3    13
 0.0001154598     1     7     4     8
 0.0008590170     1     7     4     9
 0.0000000037     1     7     4    12
 0.0000000029     1     7     4    13
 -0.0000000002     1     7     5     8
 -0.0000000008     1     7     5     9
 -0.0000119139     1     7     5    12
 -0.0000092855     1     7     5    13
 -0.5656982373     1     7     7     1
 0.0000000003     1     7     7     2
 0.0167337607     1     7     7     3
 -0.0000000130     1     7     7     4
 0.0066689328     1     7     7     5
 -0.0000000018     1     7     7    10
 -0.0000000058     1     7     7    11
 0.0000000573     1     7     8     1
 -0.0383413376     1     7     8     2
 -0.0000000017     1     7     8     3
 0.0024383366     1     7     8     4
 -0.0000000002     1     7     8     5
 0.0011876705     1     7     8    10
 0.0002633193     1     7     8    11
 0.0000004267     1     7     9     1
 -0.2852584356     1     7     9     2
 -0.0000000128     1     7     9     3
 0.0181411527     1     7     9     4
 -0.0000000015     1     7     9     5
 0.0088362340     1     7     9    10
 0.0019590881     1     7     9    11
 -0.0000216495     1     7    10     8
 -0.0001610717     1     7    10     9
 0.0000000014     1     7    10    12
 0.0000000011     1     7    10    13
 0.0000115488     1     7    11     8
 0.0000859233     1     7    11     9
 -0.0000000004     1     7    11    12
 -0.0000000003     1     7    11    13
 -0.1624604021     1     7    12     1
 0.0000000004     1     7    12     2
 0.0113528433     1     7    12     3
 -0.0000000093     1     7    12     4
 0.0032136829     1     7    12     5
 -0.0000000035     1     7    12    10
 -0.0000000036     1     7    12    11
 -0.1266190391     1     7    13     1
 0.0000000002     1     7    13     2
 0.0088482246     1     7    13     3
 -0.0000000072     1     7    13     4
 0.0025046931     1     7    13     5
 -0.0000000027     1     7    13    10
 -0.0000000028     1     7    13    11
 -0.0001132188     1     8     2     6
 -0.0000152176     1     8     2     7
 -0.0000970680     1     8     2    12
 0.0000950975     1     8     2    13
 -0.0000000015     1     8     3     6
 -0.0000000002     1     8     3     7
 0.0000000035     1     8     3    12
 -0.0000000035     1     8     3    13
 -0.0008590170     1     8     4     6
 -0.0001154598     1     8     4     7
 -0.0055689402     1     8     4    12
 0.0054558940     1     8     4    13
 0.0000000008     1     8     5     6
 0.0000000002     1     8     5     7
 0.0000000008     1     8     5    12
 -0.0000000008     1     8     5    13
 0.0000004267     1     8     6     1
 -0.2853716544     1     8     6     2
 -0.0000000143     1     8     6     3
 0.0172821357     1     8     6     4
 -0.0000000007     1     8     6     5
 0.0089973057     1     8     6    10
 0.0018731648     1     8     6    11
 0.0000000573     1     8     7     1
 -0.0383565552     1     8     7     2
 -0.0000000019     1     8     7     3
 0.0023228768     1     8     7     4
 0.0012093200     1     8     7    10
 0.0002517705     1     8     7    11
 -0.5842511686     1     8     8     1
 -0.0000000002     1     8     8     2
 0.0179553922     1     8     8     3
 -0.0000000155     1     8     8     4
 0.0064082482     1     8     8     5
 -0.0000000040     1     8     8    10
 -0.0000000048     1     8     8    11
 0.0001610717     1     8    10     6
 0.0000216495     1     8    10     7
 -0.0016177476     1     8    10    12
 0.0015849082     1     8    10    13
 -0.0000859233     1     8    11     6
 -0.0000115488     1     8    11     7
 0.0004237890     1     8    11    12
 -0.0004151864     1     8    11    13
 0.0000002302     1     8    12     1
 -0.1538302818     1     8    12     2
 -0.0000000085     1     8    12     3
 0.0120911141     1     8    12     4
 -0.0000000018     1     8    12     5
 0.0052948258     1     8    12    10
 0.0039799262     1     8    12    11
 -0.0000002254     1     8    13     1
 0.1507076181     1     8    13     2
 0.0000000083     1     8    13     3
 -0.0118456717     1     8    13     4
 0.0000000018     1     8    13     5
 -0.0051873441     1     8    13    10
 -0.0038991360     1     8    13    11
 0.0000152176     1     9     2     6
 -0.0001132188     1     9     2     7
 -0.0000950975     1     9     2    12
 -0.0000970680     1     9     2    13
 0.0000000002     1     9     3     6
 -0.0000000015     1     9     3     7
 0.0000000035     1     9     3    12
 0.0000000035     1     9     3    13
 0.0001154598     1     9     4     6
 -0.0008590170     1     9     4     7
 -0.0054558940     1     9     4    12
 -0.0055689402     1     9     4    13
 -0.0000000002     1     9     5     6
 0.0000000008     1     9     5     7
 0.0000000008     1     9     5    12
 0.0000000008     1     9     5    13
 -0.0000000573     1     9     6     1
 0.0383565552     1     9     6     2
 0.0000000019     1     9     6     3
 -0.0023228768     1     9     6     4
 -0.0012093200     1     9     6    10
 -0.0002517705     1     9     6    11
 0.0000004267     1     9     7     1
 -0.2853716544     1     9     7     2
 -0.0000000143     1     9     7     3
 0.0172821357     1     9     7     4
 -0.0000000007     1     9     7     5
 0.0089973057     1     9     7    10
 0.0018731648     1     9     7    11
 -0.5842511686     1     9     9     1
 -0.0000000002     1     9     9     2
 0.0179553922     1     9     9     3
 -0.0000000155     1     9     9     4
 0.0064082482     1     9     9     5
 -0.0000000040     1     9     9    10
 -0.0000000048     1     9     9    11
 -0.0000216495     1     9    10     6
 0.0001610717     1     9    10     7
 -0.0015849082     1     9    10    12
 -0.0016177476     1     9    10    13
 0.0000115488     1     9    11     6
 -0.0000859233     1     9    11     7
 0.0004151864     1     9    11    12
 0.0004237890     1     9    11    13
 0.0000002254     1     9    12     1
 -0.1507076181     1     9    12     2
 -0.0000000083     1     9    12     3
 0.0118456717     1     9    12     4
 -0.0000000018     1     9    12     5
 0.0051873441     1     9    12    10
 0.0038991360     1     9    12    11
 0.0000002302     1     9    13     1
 -0.1538302818     1     9    13     2
 -0.0000000085     1     9    13     3
 0.0120911141     1     9    13     4
 -0.0000000018     1     9    13     5
 0.0052948258     1     9    13    10
 0.0039799262     1     9    13    11
 -0.0060711938     1    10     2     1
 -0.0000000046     1    10     2     2
 -0.0000531963     1    10     2     3
 0.0002452860     1    10     2     5
 0.0000001763     1    10     3     1
 -0.1178996552     1    10     3     2
 -0.0000000061     1    10     3     3
 0.0003935986     1    10     3     4
 0.0000000024     1    10     3     5
 0.0056550533     1    10     3    11
 -0.0563662925     1    10     4     1
 -0.0064701349     1    10     4     3
 0.0000000018     1    10     4     4
 -0.0021736477     1    10     4     5
 -0.0000000033     1    10     4    11
 -0.0000003992     1    10     5     1
 0.2670787767     1    10     5     2
 0.0000000157     1    10     5     3
 -0.0205567433     1    10     5     4
 0.0000000021     1    10     5     5
 -0.0068896116     1    10     5    11
 0.0000000018     1    10     6     6
 -0.0089973057     1    10     6     8
 0.0012093200     1    10     6     9
 0.0000000038     1    10     6    12
 -0.0000000049     1    10     6    13
 0.0000000018     1    10     7     7
 -0.0012093200     1    10     7     8
 -0.0089973057     1    10     7     9
 0.0000000049     1    10     7    12
 0.0000000038     1    10     7    13
 -0.0088362340     1    10     8     6
 -0.0011876705     1    10     8     7
 0.0000000040     1    10     8     8
 -0.0069125734     1    10     8    12
 0.0067722523     1    10     8    13
 0.0011876705     1    10     9     6
 -0.0088362340     1    10     9     7
 0.0000000040     1    10     9     9
 -0.0067722523     1    10     9    12
 -0.0069125734     1    10     9    13
 -0.6306115616     1    10    10     1
 -0.0000000003     1    10    10     2
 0.0166903879     1    10    10     3
 -0.0000000171     1    10    10     4
 0.0147471540     1    10    10     5
 -0.0000000094     1    10    10    11
 0.1902140806     1    10    11     1
 0.0000000001     1    10    11     2
 -0.0133632757     1    10    11     3
 0.0000000123     1    10    11     4
 -0.0100707994     1    10    11     5
 0.0000000102     1    10    11    11
 0.0000000027     1    10    12     6
 0.0000000035     1    10    12     7
 -0.0052948258     1    10    12     8
 -0.0051873441     1    10    12     9
 0.0000000043     1    10    12    12
 -0.0000000035     1    10    13     6
 0.0000000027     1    10    13     7
 0.0051873441     1    10    13     8
 -0.0052948258     1    10    13     9
 0.0000000043     1    10    13    13
 0.0059935327     1    11     2     1
 0.0000000045     1    11     2     2
 0.0000531855     1    11     2     3
 -0.0002445803     1    11     2     5
 0.0000000454     1    11     3     1
 -0.0301766239     1    11     3     2
 0.0000000064     1    11     3     3
 0.0010347196     1    11     3     4
 -0.0000000062     1    11     3     5
 -0.0056550533     1    11     3    10
 -0.1134499722     1    11     4     1
 0.0000000002     1    11     4     2
 0.0063430223     1    11     4     3
 -0.0000000029     1    11     4     4
 0.0064910591     1    11     4     5
 0.0000000033     1    11     4    10
 0.0000002833     1    11     5     1
 -0.1893531312     1    11     5     2
 -0.0000000169     1    11     5     3
 0.0199169656     1    11     5     4
 0.0000000023     1    11     5     5
 0.0068896116     1    11     5    10
 0.0000000058     1    11     6     6
 -0.0018731648     1    11     6     8
 0.0002517705     1    11     6     9
 0.0000000025     1    11     6    12
 -0.0000000032     1    11     6    13
 0.0000000058     1    11     7     7
 -0.0002517705     1    11     7     8
 -0.0018731648     1    11     7     9
 0.0000000032     1    11     7    12
 0.0000000025     1    11     7    13
 -0.0019590881     1    11     8     6
 -0.0002633193     1    11     8     7
 0.0000000048     1    11     8     8
 -0.0035561372     1    11     8    12
 0.0034839496     1    11     8    13
 0.0002633193     1    11     9     6
 -0.0019590881     1    11     9     7
 0.0000000048     1    11     9     9
 -0.0034839496     1    11     9    12
 -0.0035561372     1    11     9    13
 0.1902140806     1    11    10     1
 0.0000000001     1    11    10     2
 -0.0190183290     1    11    10     3
 0.0000000156     1    11    10     4
 -0.0031811878     1    11    10     5
 0.0000000094     1    11    10    10
 -0.5107694385     1    11    11     1
 0.0000000008     1    11    11     2
 0.0164261404     1    11    11     3
 -0.0000000111     1    11    11     4
 -0.0021537908     1    11    11     5
 -0.0000000102     1    11    11    10
 0.0000000028     1    11    12     6
 0.0000000036     1    11    12     7
 -0.0039799262     1    11    12     8
 -0.0038991360     1    11    12     9
 0.0000000079     1    11    12    12
 -0.0000000036     1    11    13     6
 0.0000000028     1    11    13     7
 0.0038991360     1    11    13     8
 -0.0039799262     1    11    13     9
 0.0000000079     1    11    13    13
 0.0000970680     1    12     2     8
 0.0000950975     1    12     2     9
 0.0051806145     1    12     3     6
 0.0066470629     1    12     3     7
 -0.0000000035     1    12     3     8
 -0.0000000035     1    12     3     9
 -0.0000000029     1    12     4     6
 -0.0000000037     1    12     4     7
 0.0055689402     1    12     4     8
 0.0054558940     1    12     4     9
 0.0000092855     1    12     5     6
 0.0000119139     1    12     5     7
 -0.0000000008     1    12     5     8
 -0.0000000008     1    12     5     9
 -0.1266190391     1    12     6     1
 0.0000000002     1    12     6     2
 0.0140288391     1    12     6     3
 -0.0000000101     1    12     6     4
 0.0025139786     1    12     6     5
 -0.0000000038     1    12     6    10
 -0.0000000025     1    12     6    11
 -0.1624604021     1    12     7     1
 0.0000000004     1    12     7     2
 0.0179999062     1    12     7     3
 -0.0000000130     1    12     7     4
 0.0032255968     1    12     7     5
 -0.0000000049     1    12     7    10
 -0.0000000032     1    12     7    11
 0.0000002302     1    12     8     1
 -0.1537332138     1    12     8     2
 -0.0000000120     1    12     8     3
 0.0176600543     1    12     8     4
 -0.0000000026     1    12     8     5
 0.0069125734     1    12     8    10
 0.0035561372     1    12     8    11
 0.0000002254     1    12     9     1
 -0.1506125206     1    12     9     2
 -0.0000000118     1    12     9     3
 0.0173015657     1    12     9     4
 -0.0000000026     1    12     9     5
 0.0067722523     1    12     9    10
 0.0034839496     1    12     9    11
 -0.0000000011     1    12    10     6
 -0.0000000014     1    12    10     7
 0.0016177476     1    12    10     8
 0.0015849082     1    12    10     9
 0.0000000003     1    12    11     6
 0.0000000004     1    12    11     7
 -0.0004237890     1    12    11     8
 -0.0004151864     1    12    11     9
 -0.5744097604     1    12    12     1
 0.0000000009     1    12    12     2
 0.0192778323     1    12    12     3
 -0.0000000165     1    12    12     4
 0.0077434929     1    12    12     5
 -0.0000000043     1    12    12    10
 -0.0000000079     1    12    12    11
 -0.0000950975     1    13     2     8
 0.0000970680     1    13     2     9
 -0.0066470629     1    13     3     6
 0.0051806145     1    13     3     7
 0.0000000035     1    13     3     8
 -0.0000000035     1    13     3     9
 0.0000000037     1    13     4     6
 -0.0000000029     1    13     4     7
 -0.0054558940     1    13     4     8
 0.0055689402     1    13     4     9
 -0.0000119139     1    13     5     6
 0.0000092855     1    13     5     7
 0.0000000008     1    13     5     8
 -0.0000000008     1    13     5     9
 0.1624604021     1    13     6     1
 -0.0000000004     1    13     6     2
 -0.0179999062     1    13     6     3
 0.0000000130     1    13     6     4
 -0.0032255968     1    13     6     5
 0.0000000049     1    13     6    10
 0.0000000032     1    13     6    11
 -0.1266190391     1    13     7     1
 0.0000000002     1    13     7     2
 0.0140288391     1    13     7     3
 -0.0000000101     1    13     7     4
 0.0025139786     1    13     7     5
 -0.0000000038     1    13     7    10
 -0.0000000025     1    13     7    11
 -0.0000002254     1    13     8     1
 0.1506125206     1    13     8     2
 0.0000000118     1    13     8     3
 -0.0173015657     1    13     8     4
 0.0000000026     1    13     8     5
 -0.0067722523     1    13     8    10
 -0.0034839496     1    13     8    11
 0.0000002302     1    13     9     1
 -0.1537332138     1    13     9     2
 -0.0000000120     1    13     9     3
 0.0176600543     1    13     9     4
 -0.0000000026     1    13     9     5
 0.0069125734     1    13     9    10
 0.0035561372     1    13     9    11
 0.0000000014     1    13    10     6
 -0.0000000011     1    13    10     7
 -0.0015849082     1    13    10     8
 0.0016177476     1    13    10     9