&FCI NORB=  8,NELEC=  8,MS2=0,
 ORBSYM=1,1,1,1,1,1,1,1
 ISYM=1,
&END
 0.2585083135     1     1     2     2
 0.0000008981     1     1     2     7
 0.2666030632     1     1     3     3
 0.0000000116     1     1     3     4
 0.0000000116     1     1     4     3
 0.2696795904     1     1     4     4
 0.2607659982     1     1     5     5
 -0.0000000148     1     1     5     6
 -0.0000000148     1     1     6     5
 0.2567283617     1     1     6     6
 0.0000008981     1     1     7     2
 0.1895702763     1     1     7     7
 0.1752144872     1     1     8     8
 -0.2585083135     1     2     2     1
 -0.0000000116     1     2     3     3
 -0.0019223773     1     2     3     4
 -0.0011534691     1     2     4     3
 0.0000000115     1     2     4     4
 0.0000000148     1     2     5     5
 0.0011706673     1     2     5     6
 0.0028593634     1     2     6     5
 -0.0000000147     1     2     6     6
 -0.0000008981     1     2     7     1
 -0.0000000468     1     2     8     8
 -0.0000758903     1     3     2     4
 -0.2666030632     1     3     3     1
 0.0000000116     1     3     3     2
 0.0000000032     1     3     3     7
 -0.0000000116     1     3     4     1
 0.0011534691     1     3     4     2
 -0.0009785387     1     3     4     7
 0.0012168446     1     3     5     8
 -0.0000000149     1     3     6     8
 0.0000000676     1     3     7     4
 0.0001051562     1     3     8     5
 -0.0000000010     1     3     8     6
 0.0000758903     1     4     2     3
 -0.0000000116     1     4     3     1
 0.0019223773     1     4     3     2
 -0.0009254876     1     4     3     7
 -0.2696795904     1     4     4     1
 -0.0000000115     1     4     4     2
 -0.0000000033     1     4     4     7
 0.0000000061     1     4     5     8
 -0.0020366193     1     4     6     8
 -0.0000000676     1     4     7     3
 0.0000000009     1     4     8     5
 0.0000880897     1     4     8     6
 -0.0007840275     1     5     2     6
 0.0007764455     1     5     3     8
 0.0000000036     1     5     4     8
 -0.2607659982     1     5     5     1
 -0.0000000148     1     5     5     2
 -0.0000000011     1     5     5     7
 0.0000000148     1     5     6     1
 -0.0028593634     1     5     6     2
 0.0002450186     1     5     6     7
 -0.0000014260     1     5     7     6
 -0.0001051562     1     5     8     3
 -0.0000000009     1     5     8     4
 0.0007840275     1     6     2     5
 -0.0000000111     1     6     3     8
 -0.0020653476     1     6     4     8
 0.0000000148     1     6     5     1
 -0.0011706673     1     6     5     2
 0.0002992147     1     6     5     7
 -0.2567283617     1     6     6     1
 0.0000000147     1     6     6     2
 0.0000000012     1     6     6     7
 0.0000014260     1     6     7     5
 0.0000000010     1     6     8     3
 -0.0000880897     1     6     8     4
 -0.0000008981     1     7     2     1
 -0.0000000032     1     7     3     3
 0.0009254876     1     7     3     4
 0.0009785387     1     7     4     3
 0.0000000033     1     7     4     4
 0.0000000011     1     7     5     5
 -0.0002992147     1     7     5     6
 -0.0002450186     1     7     6     5
 -0.0000000012     1     7     6     6
 -0.1895702763     1     7     7     1
 -0.0000000015     1     7     8     8
 -0.0007764455     1     8     3     5
 0.0000000111     1     8     3     6
 -0.0000000036     1     8     4     5
 0.0020653476     1     8     4     6
 -0.0012168446     1     8     5     3
 -0.0000000061     1     8     5     4
 0.0000000149     1     8     6     3
 0.0020366193     1     8     6     4
 -0.1752144872     1     8     8     1
 0.0000000468     1     8     8     2
 0.0000000015     1     8     8     7
 -0.2585083135     2     1     1     2
 -0.0000008981     2     1     1     7
 -0.0000000116     2     1     3     3
 -0.0011534691     2     1     3     4
 -0.0019223773     2     1     4     3
 0.0000000115     2     1     4     4
 0.0000000148     2     1     5     5
 0.0028593634     2     1     5     6
 0.0011706673     2     1     6     5
 -0.0000000147     2     1     6     6
 -0.0000000468     2     1     8     8
 0.2585083135     2     2     1     1
 0.2696802417     2     2     3     3
 -0.0000000115     2     2     3     4
 -0.0000000115     2     2     4     3
 0.2666058651     2     2     4     4
 0.2567278190     2     2     5     5
 0.0000000147     2     2     5     6
 0.0000000147     2     2     6     5
 0.2607486107     2     2     6     6
 0.1895670155     2     2     7     7
 0.1850623198     2     2     8     8
 0.0000758903     2     3     1     4
 0.0000000116     2     3     3     1
 -0.2696802417     2     3     3     2
 -0.0008727746     2     3     3     7
 0.0019223773     2     3     4     1
 0.0000000115     2     3     4     2
 -0.0000000036     2     3     4     7
 0.0000000022     2     3     5     8
 0.0038451167     2     3     6     8
 0.0000000005     2     3     8     5
 0.0002143484     2     3     8     6
 -0.0000758903     2     4     1     3
 0.0011534691     2     4     3     1
 0.0000000115     2     4     3     2
 -0.0000000035     2     4     3     7
 -0.0000000115     2     4     4     1
 -0.2666058651     2     4     4     2
 0.0009274378     2     4     4     7
 -0.0005750414     2     4     5     8
 -0.0000000065     2     4     6     8
 -0.0001929473     2     4     8     5
 0.0000000005     2     4     8     6
 0.0007840275     2     5     1     6
 0.0000000006     2     5     3     8
 -0.0001198963     2     5     4     8
 -0.0000000148     2     5     5     1
 -0.2567278190     2     5     5     2
 0.0002635492     2     5     5     7
 -0.0011706673     2     5     6     1
 -0.0000000147     2     5     6     2
 0.0000000010     2     5     6     7
 -0.0000000005     2     5     8     3
 0.0001929473     2     5     8     4
 -0.0007840275     2     6     1     5
 0.0029373055     2     6     3     8
 -0.0000000070     2     6     4     8
 -0.0028593634     2     6     5     1
 -0.0000000147     2     6     5     2
 0.0000000011     2     6     5     7
 0.0000000147     2     6     6     1
 -0.2607486107     2     6     6     2
 -0.0003174581     2     6     6     7
 -0.0002143484     2     6     8     3
 -0.0000000005     2     6     8     4
 0.0000008981     2     7     1     1
 0.0008727746     2     7     3     3
 0.0000000035     2     7     3     4
 0.0000000036     2     7     4     3
 -0.0009274378     2     7     4     4
 -0.0002635492     2     7     5     5
 -0.0000000011     2     7     5     6
 -0.0000000010     2     7     6     5
 0.0003174581     2     7     6     6
 -0.1895670155     2     7     7     2
 0.0009384933     2     7     8     8
 -0.0000000006     2     8     3     5
 -0.0029373055     2     8     3     6
 0.0001198963     2     8     4     5
 0.0000000070     2     8     4     6
 -0.0000000022     2     8     5     3
 0.0005750414     2     8     5     4
 -0.0038451167     2     8     6     3
 0.0000000065     2     8     6     4
 0.0000000468     2     8     8     1
 -0.1850623198     2     8     8     2
 -0.0009384933     2     8     8     7
 -0.2666030632     3     1     1     3
 -0.0000000116     3     1     1     4
 0.0000000116     3     1     2     3
 0.0011534691     3     1     2     4
 -0.0000758903     3     1     4     2
 0.0000000676     3     1     4     7
 0.0001051562     3     1     5     8
 -0.0000000010     3     1     6     8
 0.0000000032     3     1     7     3
 -0.0009785387     3     1     7     4
 0.0012168446     3     1     8     5
 -0.0000000149     3     1     8     6
 0.0000000116     3     2     1     3
 0.0019223773     3     2     1     4
 -0.2696802417     3     2     2     3
 0.0000000115     3     2     2     4
 0.0000758903     3     2     4     1
 0.0000000005     3     2     5     8
 0.0002143484     3     2     6     8
 -0.0008727746     3     2     7     3
 -0.0000000036     3     2     7     4
 0.0000000022     3     2     8     5
 0.0038451167     3     2     8     6
 0.2666030632     3     3     1     1
 -0.0000000116     3     3     1     2
 -0.0000000032     3     3     1     7
 -0.0000000116     3     3     2     1
 0.2696802417     3     3     2     2
 0.0008727746     3     3     2     7
 0.2505090712     3     3     4     4
 0.2309220989     3     3     5     5
 -0.0000000009     3     3     5     6
 -0.0000000009     3     3     6     5
 0.2406989635     3     3     6     6
 -0.0000000032     3     3     7     1
 0.0008727746     3     3     7     2
 0.1878703194     3     3     7     7
 0.1843828149     3     3     8     8
 0.0000000116     3     4     1     1
 -0.0019223773     3     4     1     2
 0.0009254876     3     4     1     7
 -0.0011534691     3     4     2     1
 -0.0000000115     3     4     2     2
 0.0000000035     3     4     2     7
 -0.2505090712     3     4     4     3
 0.0000000010     3     4     5     5
 -0.0273579943     3     4     5     6
 0.0175475226     3     4     6     5
 -0.0000000010     3     4     6     6
 0.0009785387     3     4     7     1
 0.0000000036     3     4     7     2
 0.0000000147     3     4     8     8
 -0.0007764455     3     5     1     8
 -0.0000000006     3     5     2     8
 -0.0447501907     3     5     4     6
 -0.2309220989     3     5     5     3
 -0.0000000010     3     5     5     4
 0.0000000009     3     5     6     3
 -0.0175475226     3     5     6     4
 0.0000000242     3     5     7     8
 -0.0012168446     3     5     8     1
 -0.0000000022     3     5     8     2
 0.0000000239     3     5     8     7
 0.0000000111     3     6     1     8
 -0.0029373055     3     6     2     8
 0.0447501907     3     6     4     5
 0.0000000009     3     6     5     3
 0.0273579943     3     6     5     4
 -0.2406989635     3     6     6     3
 0.0000000010     3     6     6     4
 0.0246810118     3     6     7     8
 0.0000000149     3     6     8     1
 -0.0038451167     3     6     8     2
 0.0244627140     3     6     8     7
 0.0000000032     3     7     1     3
 -0.0009254876     3     7     1     4
 -0.0008727746     3     7     2     3
 -0.0000000035     3     7     2     4
 -0.0000000676     3     7     4     1
 0.0000000001     3     7     5     8
 0.0001078701     3     7     6     8
 -0.1878703194     3     7     7     3
 -0.0000000239     3     7     8     5
 -0.0244627140     3     7     8     6
 0.0007764455     3     8     1     5
 -0.0000000111     3     8     1     6
 0.0000000006     3     8     2     5
 0.0029373055     3     8     2     6
 -0.0001051562     3     8     5     1
 -0.0000000005     3     8     5     2
 -0.0000000001     3     8     5     7
 0.0000000010     3     8     6     1
 -0.0002143484     3     8     6     2
 -0.0001078701     3     8     6     7
 -0.0000000242     3     8     7     5
 -0.0246810118     3     8     7     6
 -0.1843828149     3     8     8     3
 -0.0000000147     3     8     8     4
 -0.0000000116     4     1     1     3
 -0.2696795904     4     1     1     4
 0.0019223773     4     1     2     3
 -0.0000000115     4     1     2     4
 0.0000758903     4     1     3     2
 -0.0000000676     4     1     3     7
 0.0000000009     4     1     5     8
 0.0000880897     4     1     6     8
 -0.0009254876     4     1     7     3
 -0.0000000033     4     1     7     4
 0.0000000061     4     1     8     5
 -0.0020366193     4     1     8     6
 0.0011534691     4     2     1     3
 -0.0000000115     4     2     1     4
 0.0000000115     4     2     2     3
 -0.2666058651     4     2     2     4
 -0.0000758903     4     2     3     1
 -0.0001929473     4     2     5     8
 0.0000000005     4     2     6     8
 -0.0000000035     4     2     7     3
 0.0009274378     4     2     7     4
 -0.0005750414     4     2     8     5
 -0.0000000065     4     2     8     6
 0.0000000116     4     3     1     1
 -0.0011534691     4     3     1     2
 0.0009785387     4     3     1     7
 -0.0019223773     4     3     2     1
 -0.0000000115     4     3     2     2
 0.0000000036     4     3     2     7
 -0.2505090712     4     3     3     4
 0.0000000010     4     3     5     5
 0.0175475226     4     3     5     6
 -0.0273579943     4     3     6     5
 -0.0000000010     4     3     6     6
 0.0009254876     4     3     7     1
 0.0000000035     4     3     7     2
 0.0000000147     4     3     8     8
 0.2696795904     4     4     1     1
 0.0000000115     4     4     1     2
 0.0000000033     4     4     1     7
 0.0000000115     4     4     2     1
 0.2666058651     4     4     2     2
 -0.0009274378     4     4     2     7
 0.2505090712     4     4     3     3
 0.2407533475     4     4     5     5
 0.0000000010     4     4     5     6
 0.0000000010     4     4     6     5
 0.2309093632     4     4     6     6
 0.0000000033     4     4     7     1
 -0.0009274378     4     4     7     2
 0.1878700711     4     4     7     7
 0.1694550355     4     4     8     8
 -0.0000000036     4     5     1     8
 0.0001198963     4     5     2     8
 0.0447501907     4     5     3     6
 -0.0000000010     4     5     5     3
 -0.2407533475     4     5     5     4
 0.0273579943     4     5     6     3
 -0.0000000010     4     5     6     4
 0.0247148701     4     5     7     8
 -0.0000000061     4     5     8     1
 0.0005750414     4     5     8     2
 0.0244986156     4     5     8     7
 0.0020653476     4     6     1     8
 0.0000000070     4     6     2     8
 -0.0447501907     4     6     3     5
 -0.0175475226     4     6     5     3
 -0.0000000010     4     6     5     4
 0.0000000010     4     6     6     3
 -0.2309093632     4     6     6     4
 -0.0000000241     4     6     7     8
 0.0020366193     4     6     8     1
 0.0000000065     4     6     8     2
 -0.0000000239     4     6     8     7
 -0.0009785387     4     7     1     3
 -0.0000000033     4     7     1     4
 -0.0000000036     4     7     2     3
 0.0009274378     4     7     2     4
 0.0000000676     4     7     3     1
 0.0001092336     4     7     5     8
 -0.0000000001     4     7     6     8
 -0.1878700711     4     7     7     4
 -0.0244986156     4     7     8     5
 0.0000000239     4     7     8     6
 0.0000000036     4     8     1     5
 -0.0020653476     4     8     1     6
 -0.0001198963     4     8     2     5
 -0.0000000070     4     8     2     6
 -0.0000000009     4     8     5     1
 0.0001929473     4     8     5     2
 -0.0001092336     4     8     5     7
 -0.0000880897     4     8     6     1
 -0.0000000005     4     8     6     2
 0.0000000001     4     8     6     7
 -0.0247148701     4     8     7     5
 0.0000000241     4     8     7     6
 -0.0000000147     4     8     8     3
 -0.1694550355     4     8     8     4
 -0.2607659982     5     1     1     5
 0.0000000148     5     1     1     6
 -0.0000000148     5     1     2     5
 -0.0028593634     5     1     2     6
 -0.0001051562     5     1     3     8
 -0.0000000009     5     1     4     8
 -0.0007840275     5     1     6     2
 -0.0000014260     5     1     6     7
 -0.0000000011     5     1     7     5
 0.0002450186     5     1     7     6
 0.0007764455     5     1     8     3
 0.0000000036     5     1     8     4
 -0.0000000148     5     2     1     5
 -0.0011706673     5     2     1     6
 -0.2567278190     5     2     2     5
 -0.0000000147     5     2     2     6
 -0.0000000005     5     2     3     8
 0.0001929473     5     2     4     8
 0.0007840275     5     2     6     1
 0.0002635492     5     2     7     5
 0.0000000010     5     2     7     6
 0.0000000006     5     2     8     3
 -0.0001198963     5     2     8     4
 -0.0012168446     5     3     1     8
 -0.0000000022     5     3     2     8
 -0.2309220989     5     3     3     5
 0.0000000009     5     3     3     6
 -0.0000000010     5     3     4     5
 -0.0175475226     5     3     4     6
 -0.0447501907     5     3     6     4
 0.0000000239     5     3     7     8
 -0.0007764455     5     3     8     1
 -0.0000000006     5     3     8     2
 0.0000000242     5     3     8     7
 -0.0000000061     5     4     1     8
 0.0005750414     5     4     2     8
 -0.0000000010     5     4     3     5
 0.0273579943     5     4     3     6
 -0.2407533475     5     4     4     5
 -0.0000000010     5     4     4     6
 0.0447501907     5     4     6     3
 0.0244986156     5     4     7     8
 -0.0000000036     5     4     8     1
 0.0001198963     5     4     8     2
 0.0247148701     5     4     8     7
 0.2607659982     5     5     1     1
 0.0000000148     5     5     1     2
 0.0000000011     5     5     1     7
 0.0000000148     5     5     2     1
 0.2567278190     5     5     2     2
 -0.0002635492     5     5     2     7
 0.2309220989     5     5     3     3
 0.0000000010     5     5     3     4
 0.0000000010     5     5     4     3
 0.2407533475     5     5     4     4
 0.2438382216     5     5     6     6
 0.0000000011     5     5     7     1
 -0.0002635492     5     5     7     2
 0.1843811119     5     5     7     7
 0.1699449258     5     5     8     8
 -0.0000000148     5     6     1     1
 0.0011706673     5     6     1     2
 -0.0002992147     5     6     1     7
 0.0028593634     5     6     2     1
 0.0000000147     5     6     2     2
 -0.0000000011     5     6     2     7
 -0.0000000009     5     6     3     3
 -0.0273579943     5     6     3     4
 0.0175475226     5     6     4     3
 0.0000000010     5     6     4     4
 -0.2438382216     5     6     6     5
 -0.0002450186     5     6     7     1
 -0.0000000010     5     6     7     2
 -0.0000000104     5     6     8     8
 -0.0000000011     5     7     1     5
 0.0002992147     5     7     1     6
 0.0002635492     5     7     2     5
 0.0000000011     5     7     2     6
 -0.0000000001     5     7     3     8
 -0.0001092336     5     7     4     8
 0.0000014260     5     7     6     1
 -0.1843811119     5     7     7     5
 -0.0000000242     5     7     8     3
 -0.0247148701     5     7     8     4
 0.0012168446     5     8     1     3
 0.0000000061     5     8     1     4
 0.0000000022     5     8     2     3
 -0.0005750414     5     8     2     4
 0.0001051562     5     8     3     1
 0.0000000005     5     8     3     2
 0.0000000001     5     8     3     7
 0.0000000009     5     8     4     1
 -0.0001929473     5     8     4     2
 0.0001092336     5     8     4     7
 -0.0000000239     5     8     7     3
 -0.0244986156     5     8     7     4
 -0.1699449258     5     8     8     5
 0.0000000104     5     8     8     6
 0.0000000148     6     1     1     5
 -0.2567283617     6     1     1     6
 -0.0011706673     6     1     2     5
 0.0000000147     6     1     2     6
 0.0000000010     6     1     3     8
 -0.0000880897     6     1     4     8
 0.0007840275     6     1     5     2
 0.0000014260     6     1     5     7
 0.0002992147     6     1     7     5
 0.0000000012     6     1     7     6
 -0.0000000111     6     1     8     3
 -0.0020653476     6     1     8     4
 -0.0028593634     6     2     1     5
 0.0000000147     6     2     1     6
 -0.0000000147     6     2     2     5
 -0.2607486107     6     2     2     6
 -0.0002143484     6     2     3     8
 -0.0000000005     6     2     4     8
 -0.0007840275     6     2     5     1
 0.0000000011     6     2     7     5
 -0.0003174581     6     2     7     6
 0.0029373055     6     2     8     3
 -0.0000000070     6     2     8     4
 0.0000000149     6     3     1     8
 -0.0038451167     6     3     2     8
 0.0000000009     6     3     3     5
 -0.2406989635     6     3     3     6
 0.0273579943     6     3     4     5
 0.0000000010     6     3     4     6
 0.0447501907     6     3     5     4
 0.0244627140     6     3     7     8
 0.0000000111     6     3     8     1
 -0.0029373055     6     3     8     2
 0.0246810118     6     3     8     7
 0.0020366193     6     4     1     8
 0.0000000065     6     4     2     8
 -0.0175475226     6     4     3     5
 0.0000000010     6     4     3     6
 -0.0000000010     6     4     4     5
 -0.2309093632     6     4     4     6
 -0.0447501907     6     4     5     3
 -0.0000000239     6     4     7     8
 0.0020653476     6     4     8     1
 0.0000000070     6     4     8     2
 -0.0000000241     6     4     8     7
 -0.0000000148     6     5     1     1
 0.0028593634     6     5     1     2
 -0.0002450186     6     5     1     7
 0.0011706673     6     5     2     1
 0.0000000147     6     5     2     2
 -0.0000000010     6     5     2     7
 -0.0000000009     6     5     3     3
 0.0175475226     6     5     3     4
 -0.0273579943     6     5     4     3
 0.0000000010     6     5     4     4
 -0.2438382216     6     5     5     6
 -0.0002992147     6     5     7     1
 -0.0000000011     6     5     7     2
 -0.0000000104     6     5     8     8
 0.2567283617     6     6     1     1
 -0.0000000147     6     6     1     2
 -0.0000000012     6     6     1     7
 -0.0000000147     6     6     2     1
 0.2607486107     6     6     2     2
 0.0003174581     6     6     2     7
 0.2406989635     6     6     3     3
 -0.0000000010     6     6     3     4
 -0.0000000010     6     6     4     3
 0.2309093632     6     6     4     4
 0.2438382216     6     6     5     5
 -0.0000000012     6     6     7     1
 0.0003174581     6     6     7     2
 0.1843797458     6     6     7     7
 0.1795498780     6     6     8     8
 0.0002450186     6     7     1     5
 0.0000000012     6     7     1     6
 0.0000000010     6     7     2     5
 -0.0003174581     6     7     2     6
 -0.0001078701     6     7     3     8
 0.0000000001     6     7     4     8
 -0.0000014260     6     7     5     1
 -0.1843797458     6     7     7     6
 -0.0246810118     6     7     8     3
 0.0000000241     6     7     8     4
 -0.0000000149     6     8     1     3
 -0.0020366193     6     8     1     4
 0.0038451167     6     8     2     3
 -0.0000000065     6     8     2     4
 -0.0000000010     6     8     3     1
 0.0002143484     6     8     3     2
 0.0001078701     6     8     3     7
 0.0000880897     6     8     4     1
 0.0000000005     6     8     4     2
 -0.0000000001     6     8     4     7
 -0.0244627140     6     8     7     3
 0.0000000239     6     8     7     4
 0.0000000104     6     8     8     5
 -0.1795498780     6     8     8     6
 -0.0000008981     7     1     1     2
 -0.1895702763     7     1     1     7
 -0.0000000032     7     1     3     3
 0.0009785387     7     1     3     4
 0.0009254876     7     1     4     3
 0.0000000033     7     1     4     4
 0.0000000011     7     1     5     5
 -0.0002450186     7     1     5     6
 -0.0002992147     7     1     6     5
 -0.0000000012     7     1     6     6
 -0.0000000015     7     1     8     8
 0.0000008981     7     2     1     1
 -0.1895670155     7     2     2     7
 0.0008727746     7     2     3     3
 0.0000000036     7     2     3     4
 0.0000000035     7     2     4     3
 -0.0009274378     7     2     4     4
 -0.0002635492     7     2     5     5
 -0.0000000010     7     2     5     6
 -0.0000000011     7     2     6     5
 0.0003174581     7     2     6     6
 0.0009384933     7     2     8     8
 -0.0000000676     7     3     1     4
 0.0000000032     7     3     3     1
 -0.0008727746     7     3     3     2
 -0.1878703194     7     3     3     7
 -0.0009254876     7     3     4     1
 -0.0000000035     7     3     4     2
 -0.0000000239     7     3     5     8
 -0.0244627140     7     3     6     8
 0.0000000001     7     3     8     5
 0.0001078701     7     3     8     6
 0.0000000676     7     4     1     3
 -0.0009785387     7     4     3     1
 -0.0000000036     7     4     3     2
 -0.0000000033     7     4     4     1
 0.0009274378     7     4     4     2
 -0.1878700711     7     4     4     7
 -0.0244986156     7     4     5     8
 0.0000000239     7     4     6     8
 0.0001092336     7     4     8     5
 -0.0000000001     7     4     8     6
 0.0000014260     7     5     1     6
 -0.0000000242     7     5     3     8
 -0.0247148701     7     5     4     8
 -0.0000000011     7     5     5     1
 0.0002635492     7     5     5     2
 -0.1843811119     7     5     5     7
 0.0002992147     7     5     6     1
 0.0000000011     7     5     6     2
 -0.0000000001     7     5     8     3
 -0.0001092336     7     5     8     4
 -0.0000014260     7     6     1     5
 -0.0246810118     7     6     3     8
 0.0000000241     7     6     4     8
 0.0002450186     7     6     5     1
 0.0000000010     7     6     5     2
 0.0000000012     7     6     6     1
 -0.0003174581     7     6     6     2
 -0.1843797458     7     6     6     7
 -0.0001078701     7     6     8     3
 0.0000000001     7     6     8     4
 0.1895702763     7     7     1     1
 0.1895670155     7     7     2     2
 0.1878703194     7     7     3     3
 0.1878700711     7     7     4     4
 0.1843811119     7     7     5     5
 0.1843797458     7     7     6     6
 0.1119070574     7     7     8     8
 0.0000000242     7     8     3     5
 0.0246810118     7     8     3     6
 0.0247148701     7     8     4     5
 -0.0000000241     7     8     4     6
 0.0000000239     7     8     5     3
 0.0244986156     7     8     5     4
 0.0244627140     7     8     6     3
 -0.0000000239     7     8     6     4
 0.0000000015     7     8     8     1
 -0.0009384933     7     8     8     2
 -0.1119070574     7     8     8     7
 -0.1752144872     8     1     1     8
 0.0000000468     8     1     2     8
 -0.0012168446     8     1     3     5
 0.0000000149     8     1     3     6
 -0.0000000061     8     1     4     5
 0.0020366193     8     1     4     6
 -0.0007764455     8     1     5     3
 -0.0000000036     8     1     5     4
 0.0000000111     8     1     6     3
 0.0020653476     8     1     6     4
 0.0000000015     8     1     7     8
 0.0000000468     8     2     1     8
 -0.1850623198     8     2     2     8
 -0.0000000022     8     2     3     5
 -0.0038451167     8     2     3     6
 0.0005750414     8     2     4     5
 0.0000000065     8     2     4     6
 -0.0000000006     8     2     5     3
 0.0001198963     8     2     5     4
 -0.0029373055     8     2     6     3
 0.0000000070     8     2     6     4
 -0.0009384933     8     2     7     8
 -0.0001051562     8     3     1     5
 0.0000000010     8     3     1     6
 -0.0000000005     8     3     2     5
 -0.0002143484     8     3     2     6
 -0.1843828149     8     3     3     8
 -0.0000000147     8     3     4     8
 0.0007764455     8     3     5     1
 0.0000000006     8     3     5     2
 -0.0000000242     8     3     5     7
 -0.0000000111     8     3     6     1
 0.0029373055     8     3     6     2
 -0.0246810118     8     3     6     7
 -0.0000000001     8     3     7     5
 -0.0001078701     8     3     7     6
 -0.0000000009     8     4     1     5
 -0.0000880897     8     4     1     6
 0.0001929473     8     4     2     5
 -0.0000000005     8     4     2     6
 -0.0000000147     8     4     3     8
 -0.1694550355     8     4     4     8
 0.0000000036     8     4     5     1
 -0.0001198963     8     4     5     2
 -0.0247148701     8     4     5     7
 -0.0020653476     8     4     6     1
 -0.0000000070     8     4     6     2
 0.0000000241     8     4     6     7
 -0.0001092336     8     4     7     5
 0.0000000001     8     4     7     6
 0.0001051562     8     5     1     3
 0.0000000009     8     5     1     4
 0.0000000005     8     5     2     3
 -0.0001929473     8     5     2     4
 0.0012168446     8     5     3     1
 0.0000000022     8     5     3     2
 -0.0000000239     8     5     3     7
 0.0000000061     8     5     4     1
 -0.0005750414     8     5     4     2
 -0.0244986156     8     5     4     7
 -0.1699449258     8     5     5     8
 0.0000000104     8     5     6     8
 0.0000000001     8     5     7     3
 0.0001092336     8     5     7     4
 -0.0000000010     8     6     1     3
 0.0000880897     8     6     1     4
 0.0002143484     8     6     2     3
 0.0000000005     8     6     2     4
 -0.0000000149     8     6     3     1
 0.0038451167     8     6     3     2
 -0.0244627140     8     6     3     7
 -0.0020366193     8     6     4     1
 -0.0000000065     8     6     4     2
 0.0000000239     8     6     4     7
 0.0000000104     8     6     5     8
 -0.1795498780     8     6     6     8
 0.0001078701     8     6     7     3
 -0.0000000001     8     6     7     4
 0.0000000015     8     7     1     8
 -0.0009384933     8     7     2     8
 0.0000000239     8     7     3     5
 0.0244627140     8     7     3     6
 0.0244986156     8     7     4     5
 -0.0000000239     8     7     4     6
 0.0000000242     8     7     5     3
 0.0247148701     8     7     5     4
 0.0246810118     8     7     6     3
 -0.0000000241     8     7     6     4
 -0.1119070574     8     7     7     8
 0.1752144872     8     8     1     1
 -0.0000000468     8     8     1     2
 -0.0000000015     8     8     1     7
 -0.0000000468     8     8     2     1
 0.1850623198     8     8     2     2
 0.0009384933     8     8     2     7
 0.1843828149     8     8     3     3
 0.0000000147     8     8     3     4
 0.0000000147     8     8     4     3
 0.1694550355     8     8     4     4
 0.1699449258     8     8     5     5
 -0.0000000104     8     8     5     6
 -0.0000000104     8     8     6     5
 0.1795498780     8     8     6     6
 -0.0000000015     8     8     7     1
 0.0009384933     8     8     7     2
 0.1119070574     8     8     7     7
0.0 0 0 0 0
 0.2585083135     1     1     2     2
 0.0000008981     1     1     2     7
 0.2666030632     1     1     3     3
 0.0000000116     1     1     3     4
 0.0000000116     1     1     4     3
 0.2696795904     1     1     4     4
 0.2607659982     1     1     5     5
 -0.0000000148     1     1     5     6
 -0.0000000148     1     1     6     5
 0.2567283617     1     1     6     6
 0.0000008981     1     1     7     2
 0.1895702763     1     1     7     7
 0.1752144872     1     1     8     8
 -0.2585083135     1     2     2     1
 -0.0000000116     1     2     3     3
 -0.0019223773     1     2     3     4
 -0.0011534691     1     2     4     3