&FCI NORB=  6,NELEC=  6,MS2=0,
 ORBSYM=1,1,1,1,1,1
 ISYM=1,
&END
 0.3939567231     1     1     2     2
 0.0000000010     1     1     2     4
 -0.0000000027     1     1     2     5
 0.3939567231     1     1     3     3
 -0.0000000027     1     1     3     4
 -0.0000000010     1     1     3     5
 0.0000000010     1     1     4     2
 -0.0000000027     1     1     4     3
 0.3986547215     1     1     4     4
 -0.0000000027     1     1     5     2
 -0.0000000010     1     1     5     3
 0.3986547215     1     1     5     5
 0.2725364724     1     1     6     6
 -0.3939567231     1     2     2     1
 -0.0000000045     1     2     2     6
 -0.0000000010     1     2     4     1
 -0.0553483358     1     2     4     6
 0.0000000027     1     2     5     1
 0.1418222216     1     2     5     6
 0.0009527947     1     2     6     4
 -0.0024414005     1     2     6     5
 -0.3939567231     1     3     3     1
 -0.0000000045     1     3     3     6
 0.0000000027     1     3     4     1
 0.1418222216     1     3     4     6
 0.0000000010     1     3     5     1
 0.0553483358     1     3     5     6
 -0.0024414005     1     3     6     4
 -0.0009527947     1     3     6     5
 -0.0000000010     1     4     2     1
 -0.0563011305     1     4     2     6
 0.0000000027     1     4     3     1
 0.1442636221     1     4     3     6
 -0.3986547215     1     4     4     1
 0.0000000032     1     4     4     6
 -0.0009527947     1     4     6     2
 0.0024414005     1     4     6     3
 0.0000000027     1     5     2     1
 0.1442636221     1     5     2     6
 0.0000000010     1     5     3     1
 0.0563011305     1     5     3     6
 -0.3986547215     1     5     5     1
 0.0000000032     1     5     5     6
 0.0024414005     1     5     6     2
 0.0009527947     1     5     6     3
 0.0000000045     1     6     2     2
 0.0563011305     1     6     2     4
 -0.1442636221     1     6     2     5
 0.0000000045     1     6     3     3
 -0.1442636221     1     6     3     4
 -0.0563011305     1     6     3     5
 0.0553483358     1     6     4     2
 -0.1418222216     1     6     4     3
 -0.0000000032     1     6     4     4
 -0.1418222216     1     6     5     2
 -0.0553483358     1     6     5     3
 -0.0000000032     1     6     5     5
 -0.2725364724     1     6     6     1
 -0.3939567231     2     1     1     2
 -0.0000000010     2     1     1     4
 0.0000000027     2     1     1     5
 0.0009527947     2     1     4     6
 -0.0024414005     2     1     5     6
 -0.0000000045     2     1     6     2
 -0.0553483358     2     1     6     4
 0.1418222216     2     1     6     5
 0.3939567231     2     2     1     1
 0.0000000045     2     2     1     6
 0.3827294091     2     2     3     3
 -0.0000000044     2     2     3     4
 -0.0000000017     2     2     3     5
 -0.0000000044     2     2     4     3
 0.3656427875     2     2     4     4
 0.0540322014     2     2     4     5
 -0.0000000017     2     2     5     3
 0.0540322014     2     2     5     4
 0.2482798827     2     2     5     5
 0.0000000045     2     2     6     1
 0.4015288290     2     2     6     6
 -0.3827294091     2     3     3     2
 -0.0000000017     2     3     3     4
 0.0000000044     2     3     3     5
 0.0000000044     2     3     4     2
 0.0540322014     2     3     4     4
 -0.1391636876     2     3     4     5
 0.0000000017     2     3     5     2
 0.0218007827     2     3     5     4
 -0.0540322014     2     3     5     5
 0.0000000010     2     4     1     1
 0.0563011305     2     4     1     6
 0.0000000044     2     4     3     2
 0.0000000017     2     4     3     3
 -0.1609644703     2     4     3     5
 -0.3656427875     2     4     4     2
 -0.0540322014     2     4     4     3
 -0.0000000032     2     4     4     5
 -0.0540322014     2     4     5     2
 -0.0218007827     2     4     5     3
 -0.0000000012     2     4     5     5
 0.0553483358     2     4     6     1
 -0.0000000006     2     4     6     6
 -0.0000000027     2     5     1     1
 -0.1442636221     2     5     1     6
 0.0000000017     2     5     3     2
 -0.0000000044     2     5     3     3
 0.1609644703     2     5     3     4
 -0.0540322014     2     5     4     2
 0.1391636876     2     5     4     3
 0.0000000032     2     5     4     4
 -0.2482798827     2     5     5     2
 0.0540322014     2     5     5     3
 0.0000000012     2     5     5     4
 -0.1418222216     2     5     6     1
 0.0000000016     2     5     6     6
 -0.0000000045     2     6     1     2
 -0.0563011305     2     6     1     4
 0.1442636221     2     6     1     5
 -0.0009527947     2     6     4     1
 0.0024414005     2     6     5     1
 -0.4015288290     2     6     6     2
 0.0000000006     2     6     6     4
 -0.0000000016     2     6     6     5
 -0.3939567231     3     1     1     3
 0.0000000027     3     1     1     4
 0.0000000010     3     1     1     5
 -0.0024414005     3     1     4     6
 -0.0009527947     3     1     5     6
 -0.0000000045     3     1     6     3
 0.1418222216     3     1     6     4
 0.0553483358     3     1     6     5
 -0.3827294091     3     2     2     3
 0.0000000044     3     2     2     4
 0.0000000017     3     2     2     5
 -0.0000000017     3     2     4     3
 0.0540322014     3     2     4     4
 0.0218007827     3     2     4     5
 0.0000000044     3     2     5     3
 -0.1391636876     3     2     5     4
 -0.0540322014     3     2     5     5
 0.3939567231     3     3     1     1
 0.0000000045     3     3     1     6
 0.3827294091     3     3     2     2
 0.0000000017     3     3     2     4
 -0.0000000044     3     3     2     5
 0.0000000017     3     3     4     2
 0.2482798827     3     3     4     4
 -0.0540322014     3     3     4     5
 -0.0000000044     3     3     5     2
 -0.0540322014     3     3     5     4
 0.3656427875     3     3     5     5
 0.0000000045     3     3     6     1
 0.4015288290     3     3     6     6
 -0.0000000027     3     4     1     1
 -0.1442636221     3     4     1     6
 -0.0000000044     3     4     2     2
 -0.0000000017     3     4     2     3
 0.1609644703     3     4     2     5
 -0.0540322014     3     4     4     2
 -0.2482798827     3     4     4     3
 -0.0000000012     3     4     4     5
 0.1391636876     3     4     5     2
 0.0540322014     3     4     5     3
 0.0000000032     3     4     5     5
 -0.1418222216     3     4     6     1
 0.0000000016     3     4     6     6
 -0.0000000010     3     5     1     1
 -0.0563011305     3     5     1     6
 -0.0000000017     3     5     2     2
 0.0000000044     3     5     2     3
 -0.1609644703     3     5     2     4
 -0.0218007827     3     5     4     2
 0.0540322014     3     5     4     3
 0.0000000012     3     5     4     4
 0.0540322014     3     5     5     2
 -0.3656427875     3     5     5     3
 -0.0000000032     3     5     5     4
 -0.0553483358     3     5     6     1
 0.0000000006     3     5     6     6
 -0.0000000045     3     6     1     3
 0.1442636221     3     6     1     4
 0.0563011305     3     6     1     5
 0.0024414005     3     6     4     1
 0.0009527947     3     6     5     1
 -0.4015288290     3     6     6     3
 -0.0000000016     3     6     6     4
 -0.0000000006     3     6     6     5
 -0.0000000010     4     1     1     2
 0.0000000027     4     1     1     3
 -0.3986547215     4     1     1     4
 -0.0009527947     4     1     2     6
 0.0024414005     4     1     3     6
 -0.0563011305     4     1     6     2
 0.1442636221     4     1     6     3
 0.0000000032     4     1     6     4
 0.0000000010     4     2     1     1
 0.0553483358     4     2     1     6
 0.0000000044     4     2     2     3
 -0.3656427875     4     2     2     4
 -0.0540322014     4     2     2     5
 0.0000000017     4     2     3     3
 -0.0540322014     4     2     3     4
 -0.0218007827     4     2     3     5
 -0.1609644703     4     2     5     3
 -0.0000000032     4     2     5     4
 -0.0000000012     4     2     5     5
 0.0563011305     4     2     6     1
 -0.0000000006     4     2     6     6
 -0.0000000027     4     3     1     1
 -0.1418222216     4     3     1     6
 -0.0000000044     4     3     2     2
 -0.0540322014     4     3     2     4
 0.1391636876     4     3     2     5
 -0.0000000017     4     3     3     2
 -0.2482798827     4     3     3     4
 0.0540322014     4     3     3     5
 0.1609644703     4     3     5     2
 -0.0000000012     4     3     5     4
 0.0000000032     4     3     5     5
 -0.1442636221     4     3     6     1
 0.0000000016     4     3     6     6
 0.3986547215     4     4     1     1
 -0.0000000032     4     4     1     6
 0.3656427875     4     4     2     2
 0.0540322014     4     4     2     3
 0.0000000032     4     4     2     5
 0.0540322014     4     4     3     2
 0.2482798827     4     4     3     3
 0.0000000012     4     4     3     5
 0.0000000032     4     4     5     2
 0.0000000012     4     4     5     3
 0.3912378090     4     4     5     5
 -0.0000000032     4     4     6     1
 0.4044372782     4     4     6     6
 0.0540322014     4     5     2     2
 -0.1391636876     4     5     2     3
 -0.0000000032     4     5     2     4
 0.0218007827     4     5     3     2
 -0.0540322014     4     5     3     3
 -0.0000000012     4     5     3     4
 0.0000000012     4     5     5     2
 -0.0000000032     4     5     5     3
 -0.3912378090     4     5     5     4
 -0.0553483358     4     6     1     2
 0.1418222216     4     6     1     3
 0.0000000032     4     6     1     4
 0.0009527947     4     6     2     1
 -0.0024414005     4     6     3     1
 0.0000000006     4     6     6     2
 -0.0000000016     4     6     6     3
 -0.4044372782     4     6     6     4
 0.0000000027     5     1     1     2
 0.0000000010     5     1     1     3
 -0.3986547215     5     1     1     5
 0.0024414005     5     1     2     6
 0.0009527947     5     1     3     6
 0.1442636221     5     1     6     2
 0.0563011305     5     1     6     3
 0.0000000032     5     1     6     5
 -0.0000000027     5     2     1     1
 -0.1418222216     5     2     1     6
 0.0000000017     5     2     2     3
 -0.0540322014     5     2     2     4
 -0.2482798827     5     2     2     5
 -0.0000000044     5     2     3     3
 0.1391636876     5     2     3     4
 0.0540322014     5     2     3     5
 0.1609644703     5     2     4     3
 0.0000000032     5     2     4     4
 0.0000000012     5     2     4     5
 -0.1442636221     5     2     6     1
 0.0000000016     5     2     6     6
 -0.0000000010     5     3     1     1
 -0.0553483358     5     3     1     6
 -0.0000000017     5     3     2     2
 -0.0218007827     5     3     2     4
 0.0540322014     5     3     2     5
 0.0000000044     5     3     3     2
 0.0540322014     5     3     3     4
 -0.3656427875     5     3     3     5
 -0.1609644703     5     3     4     2
 0.0000000012     5     3     4     4
 -0.0000000032     5     3     4     5
 -0.0563011305     5     3     6     1
 0.0000000006     5     3     6     6
 0.0540322014     5     4     2     2
 0.0218007827     5     4     2     3
 0.0000000012     5     4     2     5
 -0.1391636876     5     4     3     2
 -0.0540322014     5     4     3     3
 -0.0000000032     5     4     3     5
 -0.0000000032     5     4     4     2
 -0.0000000012     5     4     4     3
 -0.3912378090     5     4     4     5
 0.3986547215     5     5     1     1
 -0.0000000032     5     5     1     6
 0.2482798827     5     5     2     2
 -0.0540322014     5     5     2     3
 -0.0000000012     5     5     2     4
 -0.0540322014     5     5     3     2
 0.3656427875     5     5     3     3
 0.0000000032     5     5     3     4
 -0.0000000012     5     5     4     2
 0.0000000032     5     5     4     3
 0.3912378090     5     5     4     4
 -0.0000000032     5     5     6     1
 0.4044372782     5     5     6     6
 0.1418222216     5     6     1     2
 0.0553483358     5     6     1     3
 0.0000000032     5     6     1     5
 -0.0024414005     5     6     2     1
 -0.0009527947     5     6     3     1
 -0.0000000016     5     6     6     2
 -0.0000000006     5     6     6     3
 -0.4044372782     5     6     6     5
 -0.2725364724     6     1     1     6
 0.0000000045     6     1     2     2
 0.0553483358     6     1     2     4
 -0.1418222216     6     1     2     5
 0.0000000045     6     1     3     3
 -0.1418222216     6     1     3     4
 -0.0553483358     6     1     3     5
 0.0563011305     6     1     4     2
 -0.1442636221     6     1     4     3
 -0.0000000032     6     1     4     4
 -0.1442636221     6     1     5     2
 -0.0563011305     6     1     5     3
 -0.0000000032     6     1     5     5
 -0.0009527947     6     2     1     4
 0.0024414005     6     2     1     5
 -0.0000000045     6     2     2     1
 -0.4015288290     6     2     2     6
 -0.0563011305     6     2     4     1
 0.0000000006     6     2     4     6
 0.1442636221     6     2     5     1
 -0.0000000016     6     2     5     6
 0.0024414005     6     3     1     4
 0.0009527947     6     3     1     5
 -0.0000000045     6     3     3     1
 -0.4015288290     6     3     3     6
 0.1442636221     6     3     4     1
 -0.0000000016     6     3     4     6
 0.0563011305     6     3     5     1
 -0.0000000006     6     3     5     6
 0.0009527947     6     4     1     2
 -0.0024414005     6     4     1     3
 -0.0553483358     6     4     2     1
 0.0000000006     6     4     2     6
 0.1418222216     6     4     3     1
 -0.0000000016     6     4     3     6
 0.0000000032     6     4     4     1
 -0.4044372782     6     4     4     6
 -0.0024414005     6     5     1     2
 -0.0009527947     6     5     1     3
 0.1418222216     6     5     2     1
 -0.0000000016     6     5     2     6
 0.0553483358     6     5     3     1
 -0.0000000006     6     5     3     6
 0.0000000032     6     5     5     1
 -0.4044372782     6     5     5     6
 0.2725364724     6     6     1     1
 0.4015288290     6     6     2     2
 -0.0000000006     6     6     2     4
 0.0000000016     6     6     2     5
 0.4015288290     6     6     3     3
 0.0000000016     6     6     3     4
 0.0000000006     6     6     3     5
 -0.0000000006     6     6     4     2
 0.0000000016     6     6     4     3
 0.4044372782     6     6     4     4
 0.0000000016     6     6     5     2
 0.0000000006     6     6     5     3
 0.4044372782     6     6     5     5
0.0 0 0 0 0
 0.3939567231     1     1     2     2
 0.0000000010     1     1     2     4
 -0.0000000027     1     1     2     5
 0.3939567231     1     1     3     3
 -0.0000000027     1     1     3     4
 -0.0000000010     1     1     3     5
 0.0000000010     1     1     4     2
 -0.0000000027     1     1     4     3
 0.3986547215     1     1     4     4
 -0.0000000027     1     1     5     2
 -0.0000000010     1     1     5     3
 0.3986547215     1     1     5     5
 0.2725364724     1     1     6     6
 -0.3939567231     1     2     2     1
 -0.0000000045     1     2     2     6
 -0.0000000010     1     2     4     1
 -0.0553483358     1     2     4     6
 0.0000000027     1     2     5     1
 0.1418222216     1     2     5     6
 0.0009527947     1     2     6     4
 -0.0024414005     1     2     6     5
 -0.3939567231     1     3     3     1
 -0.0000000045     1     3     3     6
 0.0000000027     1     3     4     1
 0.1418222216     1     3     4     6
 0.0000000010     1     3     5     1
 0.0553483358     1     3     5     6
 -0.0024414005     1     3     6     4
 -0.0009527947     1     3     6     5
 -0.0000000010     1     4     2     1
 -0.0563011305     1     4     2     6
 0.0000000027     1     4     3     1
 0.1442636221     1     4     3     6
 -0.3986547215     1     4     4     1
 0.0000000032     1     4     4     6
 -0.0009527947     1     4     6     2
 0.0024414005     1     4     6     3
 0.0000000027     1     5     2     1
 0.1442636221     1     5     2     6
 0.0000000010     1     5     3     1
 0.0563011305     1     5     3     6
 -0.3986547215     1     5     5     1
 0.0000000032     1     5     5     6
 0.0024414005     1     5     6     2
 0.0009527947     1     5     6     3
 0.0000000045     1     6     2     2
 0.0563011305     1     6     2     4
 -0.1442636221     1     6     2     5
 0.0000000045     1     6     3     3
 -0.1442636221     1     6     3     4
 -0.0563011305     1     6     3     5
 0.0553483358     1     6     4     2
 -0.1418222216     1     6     4     3
 -0.0000000032     1     6     4     4
 -0.1418222216     1     6     5     2
 -0.0553483358     1     6     5     3
 -0.0000000032     1     6     5     5
 -0.2725364724     1     6     6     1
 -0.3939567231     2     1     1     2
 -0.0000000010     2     1     1     4
 0.0000000027     2     1     1     5
 0.0009527947     2     1     4     6
 -0.0024414005     2     1     5     6
 -0.0000000045     2     1     6     2
 -0.0553483358     2     1     6     4
 0.1418222216     2     1     6     5
 0.3939567231     2     2     1     1
 0.0000000045     2     2     1     6
 0.3827294091     2     2     3     3
 -0.0000000044     2     2     3     4
 -0.0000000017     2     2     3     5
 -0.0000000044     2     2     4     3
 0.3656427875     2     2     4     4
 0.0540322014     2     2     4     5
 -0.0000000017     2     2     5     3
 0.0540322014     2     2     5     4
 0.2482798827     2     2     5     5
 0.0000000045     2     2     6     1
 0.4015288290     2     2     6     6
 -0.3827294091     2     3     3     2
 -0.0000000017     2     3     3     4
 0.0000000044     2     3     3     5
 0.0000000044     2     3     4     2
 0.0540322014     2     3     4     4
 -0.1391636876     2     3     4     5
 0.0000000017     2     3     5     2
 0.0218007827     2     3     5     4
 -0.0540322014     2     3     5     5
 0.0000000010     2     4     1     1
 0.0563011305     2     4     1     6
 0.0000000044     2     4     3     2
 0.0000000017     2     4     3     3
 -0.1609644703     2     4     3     5
 -0.3656427875     2     4     4     2
 -0.0540322014     2     4     4     3
 -0.0000000032     2     4     4     5
 -0.0540322014     2     4     5     2
 -0.0218007827     2     4     5     3
 -0.0000000012     2     4     5     5
 0.0553483358     2     4     6     1
 -0.0000000006     2     4     6     6
 -0.0000000027     2     5     1     1
 -0.1442636221     2     5     1     6
 0.0000000017     2     5     3     2
 -0.0000000044     2     5     3     3
 0.1609644703     2     5     3     4
 -0.0540322014     2     5     4     2
 0.1391636876     2     5     4     3
 0.0000000032     2     5     4     4
 -0.2482798827     2     5     5     2
 0.0540322014     2     5     5     3
 0.0000000012     2     5     5     4
 -0.1418222216     2     5     6     1
 0.0000000016     2     5     6     6
 -0.0000000045     2     6     1     2
 -0.0563011305     2     6     1     4
 0.1442636221     2     6     1     5
 -0.0009527947     2     6     4     1
 0.0024414005     2     6     5     1
 -0.4015288290     2     6     6     2
 0.0000000006     2     6     6     4
 -0.0000000016     2     6     6     5
 -0.3939567231     3     1     1     3
 0.0000000027     3     1     1     4
 0.0000000010     3     1     1     5
 -0.0024414005     3     1     4     6
 -0.0009527947     3     1     5     6
 -0.0000000045     3     1     6     3
 0.1418222216     3     1     6     4
 0.0553483358     3     1     6     5
 -0.3827294091     3     2     2     3
 0.0000000044     3     2     2     4
 0.0000000017     3     2     2     5
 -0.0000000017     3     2     4     3
 0.0540322014     3     2     4     4
 0.0218007827     3     2     4     5
 0.0000000044     3     2     5     3
 -0.1391636876     3     2     5     4
 -0.0540322014     3     2     5     5
 0.3939567231     3     3     1     1
 0.0000000045     3     3     1     6
 0.3827294091     3     3     2     2
 0.0000000017     3     3     2     4
 -0.0000000044     3     3     2     5
 0.0000000017     3     3     4     2
 0.2482798827     3     3     4     4
 -0.0540322014     3     3     4     5
 -0.0000000044     3     3     5     2
 -0.0540322014     3     3     5     4
 0.3656427875     3     3     5     5
 0.0000000045     3     3     6     1
 0.4015288290     3     3     6     6
 -0.0000000027     3     4     1     1
 -0.1442636221     3     4     1     6
 -0.0000000044     3     4     2     2
 -0.0000000017     3     4     2     3
 0.1609644703     3     4     2     5
 -0.0540322014     3     4     4     2
 -0.2482798827     3     4     4     3
 -0.0000000012     3     4     4     5
 0.1391636876     3     4     5     2
 0.0540322014     3     4     5     3
 0.0000000032     3     4     5     5
 -0.1418222216     3     4     6     1
 0.0000000016     3     4     6     6
 -0.0000000010     3     5     1     1
 -0.0563011305     3     5     1     6
 -0.0000000017     3     5     2     2
 0.0000000044     3     5     2     3
 -0.1609644703     3     5     2     4
 -0.0218007827     3     5     4     2
 0.0540322014     3     5     4     3
 0.0000000012     3     5     4     4
 0.0540322014     3     5     5     2
 -0.3656427875     3     5     5     3
 -0.0000000032     3     5     5     4
 -0.0553483358     3     5     6     1
 0.0000000006     3     5     6     6
 -0.0000000045     3     6     1     3
 0.1442636221     3     6     1     4
 0.0563011305     3     6     1     5
 0.0024414005     3     6     4     1
 0.0009527947     3     6     5     1
 -0.4015288290     3     6     6     3
 -0.0000000016     3     6     6     4
 -0.0000000006     3     6     6     5
 -0.0000000010     4     1     1     2
 0.0000000027     4     1     1     3
 -0.3986547215     4     1     1     4
 -0.0009527947     4     1     2     6
 0.0024414005     4     1     3     6
 -0.0563011305     4     1     6     2
 0.1442636221     4     1     6     3
 0.0000000032     4     1     6     4
 0.0000000010     4     2     1     1
 0.0553483358     4     2     1     6
 0.0000000044     4     2     2     3
 -0.3656427875     4     2     2     4
 -0.0540322014     4     2     2     5
 0.0000000017     4     2     3     3
 -0.0540322014     4     2     3     4
 -0.0218007827     4     2     3     5
 -0.1609644703     4     2     5     3
 -0.0000000032     4     2     5     4
 -0.0000000012     4     2     5     5
 0.0563011305     4     2     6     1
 -0.0000000006     4     2     6     6
 -0.0000000027     4     3     1     1
 -0.1418222216     4     3     1     6
 -0.0000000044     4     3     2     2
 -0.0540322014     4     3     2     4
 0.1391636876     4     3     2     5
 -0.0000000017     4     3     3     2
 -0.2482798827     4     3     3     4
 0.0540322014     4     3     3     5
 0.1609644703     4     3     5     2
 -0.0000000012     4     3     5     4
 0.0000000032     4     3     5     5
 -0.1442636221     4     3     6     1
 0.0000000016     4     3     6     6
 0.3986547215     4     4     1     1
 -0.0000000032     4     4     1     6
 0.3656427875     4     4     2     2
 0.0540322014     4     4     2     3
 0.0000000032     4     4     2     5
 0.0540322014     4     4     3     2
 0.2482798827     4     4     3     3
 0.0000000012     4     4     3     5
 0.0000000032     4     4     5     2
 0.0000000012     4     4     5     3
 0.3912378090     4     4     5     5
 -0.0000000032     4     4     6     1
 0.4044372782     4     4     6     6
 0.0540322014     4     5     2     2
 -0.1391636876     4     5     2     3
 -0.0000000032     4     5     2     4
 0.0218007827     4     5     3     2
 -0.0540322014     4     5     3     3
 -0.0000000012     4     5     3     4
 0.0000000012     4     5     5     2
 -0.0000000032     4     5     5     3
 -0.3912378090     4     5     5     4
 -0.0553483358     4     6     1     2
 0.1418222216     4     6     1     3
 0.0000000032     4     6     1     4
 0.0009527947     4     6     2     1
 -0.0024414005     4     6     3     1
 0.0000000006     4     6     6     2
 -0.0000000016     4     6     6     3
 -0.4044372782     4     6     6     4
 0.0000000027     5     1     1     2
 0.0000000010     5     1     1     3
 -0.3986547215     5     1     1     5
 0.0024414005     5     1     2     6
 0.0009527947     5     1     3     6
 0.1442636221     5     1     6     2
 0.0563011305     5     1     6     3
 0.0000000032     5     1     6     5
 -0.0000000027     5     2     1     1
 -0.1418222216     5     2     1     6
 0.0000000017     5     2     2     3
 -0.0540322014     5     2     2     4
 -0.2482798827     5     2     2     5
 -0.0000000044     5     2     3     3
 0.1391636876     5     2     3     4
 0.0540322014     5     2     3     5
 0.1609644703     5     2     4     3
 0.0000000032     5     2     4     4
 0.0000000012     5     2     4     5
 -0.1442636221     5     2     6     1
 0.0000000016     5     2     6     6
 -0.0000000010     5     3     1     1
 -0.0553483358     5     3     1     6
 -0.0000000017     5     3     2     2
 -0.0218007827     5     3     2     4
 0.0540322014     5     3     2     5
 0.0000000044     5     3     3     2
 0.0540322014     5     3     3     4
 -0.3656427875     5     3     3     5
 -0.1609644703     5     3     4     2
 0.0000000012     5     3     4     4
 -0.0000000032     5     3     4     5
 -0.0563011305     5     3     6     1
 0.0000000006     5     3     6     6
 0.0540322014     5     4     2     2
 0.0218007827     5     4     2     3
 0.0000000012     5     4     2     5
 -0.1391636876     5     4     3     2
 -0.0540322014     5     4     3     3
 -0.0000000032     5     4     3     5
 -0.0000000032     5     4     4     2
 -0.0000000012     5     4     4     3
 -0.3912378090     5     4     4     5
 0.3986547215     5     5     1     1
 -0.0000000032     5     5     1     6
 0.2482798827     5     5     2     2
 -0.0540322014     5     5     2     3
 -0.0000000012     5     5     2     4
 -0.0540322014     5     5     3     2
 0.3656427875     5     5     3     3
 0.0000000032     5     5     3     4
 -0.0000000012     5     5     4     2
 0.0000000032     5     5     4     3
 0.3912378090     5     5     4     4
 -0.0000000032     5     5     6     1
 0.4044372782     5     5     6     6
 0.1418222216     5     6     1     2
 0.0553483358     5     6     1     3
 0.0000000032     5     6     1     5
 -0.0024414005     5     6     2     1
 -0.0009527947     5     6     3     1
 -0.0000000016     5     6     6     2
 -0.0000000006     5     6     6     3
 -0.4044372782     5     6     6     5
 -0.2725364724     6     1     1     6
 0.0000000045     6     1     2     2
 0.0553483358     6     1     2     4
 -0.1418222216     6     1     2     5
 0.0000000045     6     1     3     3
 -0.1418222216     6     1     3     4
 -0.0553483358     6     1     3     5
 0.0563011305     6     1     4     2
 -0.1442636221     6     1     4     3
 -0.0000000032     6     1     4     4
 -0.1442636221     6     1     5     2
 -0.0563011305     6     1     5     3
 -0.0000000032     6     1     5     5
 -0.0009527947     6     2     1     4
 0.0024414005     6     2     1     5
 -0.0000000045     6     2     2     1
 -0.4015288290     6     2     2     6
 -0.0563011305     6     2     4     1
 0.0000000006     6     2     4     6
 0.1442636221     6     2     5     1
 -0.0000000016     6     2     5     6
 0.0024414005     6     3     1     4
 0.0009527947     6     3     1     5
 -0.0000000045     6     3     3     1
 -0.4015288290     6     3     3     6
 0.1442636221     6     3     4     1
 -0.0000000016     6     3     4     6
 0.0563011305     6     3     5     1
 -0.0000000006     6     3     5     6
 0.0009527947     6     4     1     2
 -0.0024414005     6     4     1     3
 -0.0553483358     6     4     2     1
 0.0000000006     6     4     2     6
 0.1418222216     6     4     3     1
 -0.0000000016     6     4     3     6
 0.0000000032     6     4     4     1
 -0.4044372782     6     4     4     6
 -0.0024414005     6     5     1     2
 -0.0009527947     6     5     1     3
 0.1418222216     6     5     2     1
 -0.0000000016     6     5     2     6
 0.0553483358     6     5     3     1
 -0.0000000006     6     5     3     6
 0.0000000032     6     5     5     1
 -0.4044372782     6     5     5     6
 0.2725364724     6     6     1     1
 0.4015288290     6     6     2     2
 -0.0000000006     6     6     2     4
 0.0000000016     6     6     2     5
 0.4015288290     6     6     3     3
 0.0000000016     6     6     3     4
 0.0000000006     6     6     3     5
 -0.0000000006     6     6     4     2
 0.0000000016     6     6     4     3
 0.4044372782     6     6     4     4
 0.0000000016     6     6     5     2
 0.0000000006     6     6     5     3
 0.4044372782     6     6     5     5
0.0 0 0 0 0
 0.4624396075     1     1     1     1
 0.0000000034     1     1     1     6
 0.4119852883     1     1     2     2
 0.0000000011     1     1     2     4
 -0.0000000029     1     1     2     5
 0.4119852883     1     1     3     3
 -0.0000000029     1     1     3     4
 -0.0000000011     1     1     3     5
 0.0000000011     1     1     4     2
 -0.0000000029     1     1     4     3
 0.4151978915     1     1     4     4
 -0.0000000029     1     1     5     2
 -0.0000000011     1     1     5     3
 0.4151978915     1     1     5     5
 0.0000000034     1     1     6     1
 0.4627416092     1     1     6     6
 0.0180285652     1     2     1     2
 0.0000000001     1     2     1     4
 -0.0000000002     1     2     1     5
 0.0180285652     1     2     2     1
 0.0000000004     1     2     2     6
 0.0000000001     1     2     4     1
 0.0057447494     1     2     4     6
 -0.0000000002     1     2     5     1
 -0.0147201015     1     2     5     6
 0.0000000004     1     2     6     2
 0.0057447494     1     2     6     4
 -0.0147201015     1     2     6     5
 0.0180285652     1     3     1     3
 -0.0000000002     1     3     1     4
 -0.0000000001     1     3     1     5
 0.0180285652     1     3     3     1
 0.0000000004     1     3     3     6