&FCI NORB=  6,NELEC=  6,MS2=0,
 ORBSYM=1,1,1,1,1,1
 ISYM=1,
&END
 0.3842947904     1     1     2     2
 -0.0000000002     1     1     2     5
 -0.0000000001     1     1     2     6
 0.3842947904     1     1     3     3
 0.0000000002     1     1     3     4
 -0.0000000001     1     1     3     5
 0.0000000002     1     1     4     3
 0.3652514708     1     1     4     4
 -0.0000000002     1     1     5     2
 -0.0000000001     1     1     5     3
 0.3652514708     1     1     5     5
 -0.0000000001     1     1     6     2
 0.1699584938     1     1     6     6
 -0.3842947904     1     2     2     1
 -0.0000000001     1     2     2     5
 -0.0000000007     1     2     2     6
 0.0000000001     1     2     3     4
 -0.0000000004     1     2     3     6
 0.0000000001     1     2     4     3
 0.0220562915     1     2     4     6
 0.0000000002     1     2     5     1
 0.2038392591     1     2     5     6
 0.0000000001     1     2     6     1
 -0.0001020815     1     2     6     4
 -0.0009434149     1     2     6     5
 -0.0000000004     1     3     2     6
 -0.3842947904     1     3     3     1
 0.0000000010     1     3     3     6
 -0.0000000002     1     3     4     1
 -0.0000000001     1     3     4     2
 -0.2038392591     1     3     4     6
 0.0000000001     1     3     5     1
 0.0220562915     1     3     5     6
 0.0009434149     1     3     6     4
 -0.0001020815     1     3     6     5
 0.0212772685     1     4     2     6
 -0.0000000002     1     4     3     1
 -0.0000000001     1     4     3     2
 -0.1966397042     1     4     3     6
 -0.3652514708     1     4     4     1
 -0.0000000011     1     4     4     6
 -0.0000000003     1     4     5     6
 0.0001020815     1     4     6     2
 -0.0009434149     1     4     6     3
 0.0000000002     1     5     2     1
 0.0000000001     1     5     2     2
 0.1966397042     1     5     2     6
 0.0000000001     1     5     3     1
 0.0212772685     1     5     3     6
 -0.0000000003     1     5     4     6
 -0.3652514708     1     5     5     1
 0.0000000008     1     5     5     6
 0.0009434149     1     5     6     2
 0.0001020815     1     5     6     3
 -0.0000000001     1     5     6     6
 0.0000000001     1     6     2     1
 0.0000000007     1     6     2     2
 0.0000000004     1     6     2     3
 -0.0212772685     1     6     2     4
 -0.1966397042     1     6     2     5
 0.0000000004     1     6     3     2
 -0.0000000010     1     6     3     3
 0.1966397042     1     6     3     4
 -0.0212772685     1     6     3     5
 -0.0220562915     1     6     4     2
 0.2038392591     1     6     4     3
 0.0000000011     1     6     4     4
 0.0000000003     1     6     4     5
 -0.2038392591     1     6     5     2
 -0.0220562915     1     6     5     3
 0.0000000003     1     6     5     4
 -0.0000000008     1     6     5     5
 -0.1699584938     1     6     6     1
 0.0000000001     1     6     6     5
 -0.3842947904     2     1     1     2
 0.0000000002     2     1     1     5
 0.0000000001     2     1     1     6
 0.0000000001     2     1     3     4
 0.0000000001     2     1     4     3
 -0.0001020815     2     1     4     6
 -0.0000000001     2     1     5     2
 -0.0009434149     2     1     5     6
 -0.0000000007     2     1     6     2
 -0.0000000004     2     1     6     3
 0.0220562915     2     1     6     4
 0.2038392591     2     1     6     5
 0.3842947904     2     2     1     1
 0.0000000001     2     2     1     5
 0.0000000007     2     2     1     6
 0.3859422376     2     2     3     3
 0.0000000007     2     2     3     4
 0.0000000004     2     2     3     5
 0.0000000007     2     2     4     3
 0.3618352342     2     2     4     4
 -0.0219561323     2     2     4     5
 0.0000000001     2     2     5     1
 0.0000000004     2     2     5     3
 -0.0219561323     2     2     5     4
 0.1612973733     2     2     5     5
 0.0000000007     2     2     6     1
 0.3717170711     2     2     6     6
 0.0000000004     2     3     1     6
 -0.3859422376     2     3     3     2
 0.0000000003     2     3     3     4
 -0.0000000010     2     3     3     5
 -0.0000000001     2     3     4     1
 -0.0000000007     2     3     4     2
 0.0219561323     2     3     4     4
 0.2037136118     2     3     4     5
 -0.0000000004     2     3     5     2
 -0.0031757509     2     3     5     4
 -0.0219561323     2     3     5     5
 0.0000000004     2     3     6     1
 -0.0212772685     2     4     1     6
 -0.0000000001     2     4     3     1
 -0.0000000007     2     4     3     2
 -0.0000000003     2     4     3     3
 0.1988032171     2     4     3     5
 -0.3618352342     2     4     4     2
 -0.0219561323     2     4     4     3
 0.0000000010     2     4     4     5
 0.0219561323     2     4     5     2
 0.0031757509     2     4     5     3
 0.0000000004     2     4     5     5
 -0.0220562915     2     4     6     1
 -0.0000000002     2     5     1     1
 -0.0000000001     2     5     1     2
 -0.1966397042     2     5     1     6
 -0.0000000004     2     5     3     2
 0.0000000010     2     5     3     3
 -0.1988032171     2     5     3     4
 0.0219561323     2     5     4     2
 -0.2037136118     2     5     4     3
 -0.0000000010     2     5     4     4
 -0.1612973733     2     5     5     2
 0.0219561323     2     5     5     3
 -0.0000000004     2     5     5     4
 -0.0000000001     2     5     5     6
 -0.2038392591     2     5     6     1
 0.0000000002     2     5     6     6
 -0.0000000001     2     6     1     1
 -0.0000000007     2     6     1     2
 -0.0000000004     2     6     1     3
 0.0212772685     2     6     1     4
 0.1966397042     2     6     1     5
 0.0001020815     2     6     4     1
 0.0009434149     2     6     5     1
 0.0000000001     2     6     5     5
 -0.3717170711     2     6     6     2
 -0.0000000002     2     6     6     5
 -0.3842947904     3     1     1     3
 -0.0000000002     3     1     1     4
 0.0000000001     3     1     1     5
 -0.0000000001     3     1     2     4
 0.0009434149     3     1     4     6
 -0.0001020815     3     1     5     6
 -0.0000000004     3     1     6     2
 0.0000000010     3     1     6     3
 -0.2038392591     3     1     6     4
 0.0220562915     3     1     6     5
 -0.0000000001     3     2     1     4
 0.0000000004     3     2     1     6
 -0.3859422376     3     2     2     3
 -0.0000000007     3     2     2     4
 -0.0000000004     3     2     2     5
 0.0000000003     3     2     4     3
 0.0219561323     3     2     4     4
 -0.0031757509     3     2     4     5
 -0.0000000010     3     2     5     3
 0.2037136118     3     2     5     4
 -0.0219561323     3     2     5     5
 0.0000000004     3     2     6     1
 0.3842947904     3     3     1     1
 -0.0000000010     3     3     1     6
 0.3859422376     3     3     2     2
 -0.0000000003     3     3     2     4
 0.0000000010     3     3     2     5
 -0.0000000003     3     3     4     2
 0.1612973733     3     3     4     4
 0.0219561323     3     3     4     5
 0.0000000010     3     3     5     2
 0.0219561323     3     3     5     4
 0.3618352342     3     3     5     5
 -0.0000000010     3     3     6     1
 0.3717170711     3     3     6     6
 0.0000000002     3     4     1     1
 0.0000000001     3     4     1     2
 0.1966397042     3     4     1     6
 0.0000000001     3     4     2     1
 0.0000000007     3     4     2     2
 0.0000000003     3     4     2     3
 -0.1988032171     3     4     2     5
 -0.0219561323     3     4     4     2
 -0.1612973733     3     4     4     3
 0.0000000003     3     4     4     5
 -0.2037136118     3     4     5     2
 -0.0219561323     3     4     5     3
 -0.0000000007     3     4     5     5
 0.0000000001     3     4     5     6
 0.2038392591     3     4     6     1
 0.0000000001     3     4     6     5
 -0.0000000002     3     4     6     6
 -0.0000000001     3     5     1     1
 -0.0212772685     3     5     1     6
 0.0000000004     3     5     2     2
 -0.0000000010     3     5     2     3
 0.1988032171     3     5     2     4
 0.0031757509     3     5     4     2
 -0.0219561323     3     5     4     3
 -0.0000000003     3     5     4     4
 0.0219561323     3     5     5     2
 -0.3618352342     3     5     5     3
 0.0000000007     3     5     5     4
 -0.0220562915     3     5     6     1
 -0.0000000001     3     5     6     4
 -0.0000000004     3     6     1     2
 0.0000000010     3     6     1     3
 -0.1966397042     3     6     1     4
 0.0212772685     3     6     1     5
 -0.0009434149     3     6     4     1
 0.0001020815     3     6     5     1
 -0.0000000001     3     6     5     4
 -0.3717170711     3     6     6     3
 0.0000000002     3     6     6     4
 -0.0000000002     4     1     1     3
 -0.3652514708     4     1     1     4
 -0.0000000001     4     1     2     3
 0.0001020815     4     1     2     6
 -0.0009434149     4     1     3     6
 0.0212772685     4     1     6     2
 -0.1966397042     4     1     6     3
 -0.0000000011     4     1     6     4
 -0.0000000003     4     1     6     5
 -0.0000000001     4     2     1     3
 -0.0220562915     4     2     1     6
 -0.0000000007     4     2     2     3
 -0.3618352342     4     2     2     4
 0.0219561323     4     2     2     5
 -0.0000000003     4     2     3     3
 -0.0219561323     4     2     3     4
 0.0031757509     4     2     3     5
 0.1988032171     4     2     5     3
 0.0000000010     4     2     5     4
 0.0000000004     4     2     5     5
 -0.0212772685     4     2     6     1
 0.0000000002     4     3     1     1
 0.0000000001     4     3     1     2
 0.2038392591     4     3     1     6
 0.0000000001     4     3     2     1
 0.0000000007     4     3     2     2
 -0.0219561323     4     3     2     4
 -0.2037136118     4     3     2     5
 0.0000000003     4     3     3     2
 -0.1612973733     4     3     3     4
 -0.0219561323     4     3     3     5
 -0.1988032171     4     3     5     2
 0.0000000003     4     3     5     4
 -0.0000000007     4     3     5     5
 0.0000000001     4     3     5     6
 0.1966397042     4     3     6     1
 0.0000000001     4     3     6     5
 -0.0000000002     4     3     6     6
 0.3652514708     4     4     1     1
 0.0000000011     4     4     1     6
 0.3618352342     4     4     2     2
 0.0219561323     4     4     2     3
 -0.0000000010     4     4     2     5
 0.0219561323     4     4     3     2
 0.1612973733     4     4     3     3
 -0.0000000003     4     4     3     5
 -0.0000000010     4     4     5     2
 -0.0000000003     4     4     5     3
 0.3541389947     4     4     5     5
 0.0000000011     4     4     6     1
 0.3602349458     4     4     6     6
 0.0000000003     4     5     1     6
 -0.0219561323     4     5     2     2
 0.2037136118     4     5     2     3
 0.0000000010     4     5     2     4
 -0.0031757509     4     5     3     2
 0.0219561323     4     5     3     3
 0.0000000003     4     5     3     4
 -0.0000000004     4     5     5     2
 0.0000000007     4     5     5     3
 -0.3541389947     4     5     5     4
 0.0000000003     4     5     6     1
 -0.0000000001     4     5     6     3
 0.0220562915     4     6     1     2
 -0.2038392591     4     6     1     3
 -0.0000000011     4     6     1     4
 -0.0000000003     4     6     1     5
 -0.0001020815     4     6     2     1
 0.0009434149     4     6     3     1
 -0.0000000001     4     6     5     3
 0.0000000002     4     6     6     3
 -0.3602349458     4     6     6     4
 0.0000000002     5     1     1     2
 0.0000000001     5     1     1     3
 -0.3652514708     5     1     1     5
 0.0000000001     5     1     2     2
 0.0009434149     5     1     2     6
 0.0001020815     5     1     3     6
 0.1966397042     5     1     6     2
 0.0212772685     5     1     6     3
 -0.0000000003     5     1     6     4
 0.0000000008     5     1     6     5
 -0.0000000001     5     1     6     6
 -0.0000000002     5     2     1     1
 -0.2038392591     5     2     1     6
 -0.0000000001     5     2     2     1
 -0.0000000004     5     2     2     3
 0.0219561323     5     2     2     4
 -0.1612973733     5     2     2     5
 0.0000000010     5     2     3     3
 -0.2037136118     5     2     3     4
 0.0219561323     5     2     3     5
 -0.1988032171     5     2     4     3
 -0.0000000010     5     2     4     4
 -0.0000000004     5     2     4     5
 -0.1966397042     5     2     6     1
 -0.0000000001     5     2     6     5
 0.0000000002     5     2     6     6
 -0.0000000001     5     3     1     1
 -0.0220562915     5     3     1     6
 0.0000000004     5     3     2     2
 0.0031757509     5     3     2     4
 0.0219561323     5     3     2     5
 -0.0000000010     5     3     3     2
 -0.0219561323     5     3     3     4
 -0.3618352342     5     3     3     5
 0.1988032171     5     3     4     2
 -0.0000000003     5     3     4     4
 0.0000000007     5     3     4     5
 -0.0000000001     5     3     4     6
 -0.0212772685     5     3     6     1
 0.0000000003     5     4     1     6
 -0.0219561323     5     4     2     2
 -0.0031757509     5     4     2     3
 -0.0000000004     5     4     2     5
 0.2037136118     5     4     3     2
 0.0219561323     5     4     3     3
 0.0000000007     5     4     3     5
 -0.0000000001     5     4     3     6
 0.0000000010     5     4     4     2
 0.0000000003     5     4     4     3
 -0.3541389947     5     4     4     5
 0.0000000003     5     4     6     1
 0.3652514708     5     5     1     1
 -0.0000000008     5     5     1     6
 0.1612973733     5     5     2     2
 -0.0219561323     5     5     2     3
 0.0000000004     5     5     2     4
 0.0000000001     5     5     2     6
 -0.0219561323     5     5     3     2
 0.3618352342     5     5     3     3
 -0.0000000007     5     5     3     4
 0.0000000004     5     5     4     2
 -0.0000000007     5     5     4     3
 0.3541389947     5     5     4     4
 -0.0000000008     5     5     6     1
 0.0000000001     5     5     6     2
 0.3602349458     5     5     6     6
 0.2038392591     5     6     1     2
 0.0220562915     5     6     1     3
 -0.0000000003     5     6     1     4
 0.0000000008     5     6     1     5
 -0.0009434149     5     6     2     1
 -0.0000000001     5     6     2     5
 -0.0001020815     5     6     3     1
 0.0000000001     5     6     3     4
 0.0000000001     5     6     4     3
 0.0000000001     5     6     6     1
 -0.0000000002     5     6     6     2
 -0.3602349458     5     6     6     5
 0.0000000001     6     1     1     2
 -0.1699584938     6     1     1     6
 0.0000000007     6     1     2     2
 0.0000000004     6     1     2     3
 -0.0220562915     6     1     2     4
 -0.2038392591     6     1     2     5
 0.0000000004     6     1     3     2
 -0.0000000010     6     1     3     3
 0.2038392591     6     1     3     4
 -0.0220562915     6     1     3     5
 -0.0212772685     6     1     4     2
 0.1966397042     6     1     4     3
 0.0000000011     6     1     4     4
 0.0000000003     6     1     4     5
 -0.1966397042     6     1     5     2
 -0.0212772685     6     1     5     3
 0.0000000003     6     1     5     4
 -0.0000000008     6     1     5     5
 0.0000000001     6     1     5     6
 -0.0000000001     6     2     1     1
 0.0001020815     6     2     1     4
 0.0009434149     6     2     1     5
 -0.0000000007     6     2     2     1
 -0.3717170711     6     2     2     6
 -0.0000000004     6     2     3     1
 0.0212772685     6     2     4     1
 0.1966397042     6     2     5     1
 0.0000000001     6     2     5     5
 -0.0000000002     6     2     5     6
 -0.0009434149     6     3     1     4
 0.0001020815     6     3     1     5
 -0.0000000004     6     3     2     1
 0.0000000010     6     3     3     1
 -0.3717170711     6     3     3     6
 -0.1966397042     6     3     4     1
 -0.0000000001     6     3     4     5
 0.0000000002     6     3     4     6
 0.0212772685     6     3     5     1
 -0.0001020815     6     4     1     2
 0.0009434149     6     4     1     3
 0.0220562915     6     4     2     1
 -0.2038392591     6     4     3     1
 -0.0000000001     6     4     3     5
 0.0000000002     6     4     3     6
 -0.0000000011     6     4     4     1
 -0.3602349458     6     4     4     6
 -0.0000000003     6     4     5     1
 -0.0009434149     6     5     1     2
 -0.0001020815     6     5     1     3
 0.0000000001     6     5     1     6
 0.2038392591     6     5     2     1
 -0.0000000002     6     5     2     6
 0.0220562915     6     5     3     1
 0.0000000001     6     5     3     4
 -0.0000000003     6     5     4     1
 0.0000000001     6     5     4     3
 0.0000000008     6     5     5     1
 -0.0000000001     6     5     5     2
 -0.3602349458     6     5     5     6
 0.1699584938     6     6     1     1
 -0.0000000001     6     6     1     5
 0.3717170711     6     6     2     2
 0.0000000002     6     6     2     5
 0.3717170711     6     6     3     3
 -0.0000000002     6     6     3     4
 -0.0000000002     6     6     4     3
 0.3602349458     6     6     4     4
 -0.0000000001     6     6     5     1
 0.0000000002     6     6     5     2
 0.3602349458     6     6     5     5
0.0 0 0 0 0
 0.3842947904     1     1     2     2
 -0.0000000002     1     1     2     5
 -0.0000000001     1     1     2     6
 0.3842947904     1     1     3     3
 0.0000000002     1     1     3     4
 -0.0000000001     1     1     3     5
 0.0000000002     1     1     4     3
 0.3652514708     1     1     4     4
 -0.0000000002     1     1     5     2
 -0.0000000001     1     1     5     3
 0.3652514708     1     1     5     5
 -0.0000000001     1     1     6     2
 0.1699584938     1     1     6     6
 -0.3842947904     1     2     2     1
 -0.0000000001     1     2     2     5
 -0.0000000007     1     2     2     6
 0.0000000001     1     2     3     4
 -0.0000000004     1     2     3     6
 0.0000000001     1     2     4     3
 0.0220562915     1     2     4     6
 0.0000000002     1     2     5     1
 0.2038392591     1     2     5     6
 0.0000000001     1     2     6     1
 -0.0001020815     1     2     6     4
 -0.0009434149     1     2     6     5
 -0.0000000004     1     3     2     6
 -0.3842947904     1     3     3     1
 0.0000000010     1     3     3     6
 -0.0000000002     1     3     4     1
 -0.0000000001     1     3     4     2
 -0.2038392591     1     3     4     6
 0.0000000001     1     3     5     1
 0.0220562915     1     3     5     6
 0.0009434149     1     3     6     4
 -0.0001020815     1     3     6     5
 0.0212772685     1     4     2     6
 -0.0000000002     1     4     3     1
 -0.0000000001     1     4     3     2
 -0.1966397042     1     4     3     6
 -0.3652514708     1     4     4     1
 -0.0000000011     1     4     4     6
 -0.0000000003     1     4     5     6
 0.0001020815     1     4     6     2
 -0.0009434149     1     4     6     3
 0.0000000002     1     5     2     1
 0.0000000001     1     5     2     2
 0.1966397042     1     5     2     6
 0.0000000001     1     5     3     1
 0.0212772685     1     5     3     6
 -0.0000000003     1     5     4     6
 -0.3652514708     1     5     5     1
 0.0000000008     1     5     5     6
 0.0009434149     1     5     6     2
 0.0001020815     1     5     6     3
 -0.0000000001     1     5     6     6
 0.0000000001     1     6     2     1
 0.0000000007     1     6     2     2
 0.0000000004     1     6     2     3
 -0.0212772685     1     6     2     4
 -0.1966397042     1     6     2     5
 0.0000000004     1     6     3     2
 -0.0000000010     1     6     3     3
 0.1966397042     1     6     3     4
 -0.0212772685     1     6     3     5
 -0.0220562915     1     6     4     2
 0.2038392591     1     6     4     3
 0.0000000011     1     6     4     4
 0.0000000003     1     6     4     5
 -0.2038392591     1     6     5     2
 -0.0220562915     1     6     5     3
 0.0000000003     1     6     5     4
 -0.0000000008     1     6     5     5
 -0.1699584938     1     6     6     1
 0.0000000001     1     6     6     5
 -0.3842947904     2     1     1     2
 0.0000000002     2     1     1     5
 0.0000000001     2     1     1     6
 0.0000000001     2     1     3     4
 0.0000000001     2     1     4     3
 -0.0001020815     2     1     4     6
 -0.0000000001     2     1     5     2
 -0.0009434149     2     1     5     6
 -0.0000000007     2     1     6     2
 -0.0000000004     2     1     6     3
 0.0220562915     2     1     6     4
 0.2038392591     2     1     6     5
 0.3842947904     2     2     1     1
 0.0000000001     2     2     1     5
 0.0000000007     2     2     1     6
 0.3859422376     2     2     3     3
 0.0000000007     2     2     3     4
 0.0000000004     2     2     3     5
 0.0000000007     2     2     4     3
 0.3618352342     2     2     4     4
 -0.0219561323     2     2     4     5
 0.0000000001     2     2     5     1
 0.0000000004     2     2     5     3
 -0.0219561323     2     2     5     4
 0.1612973733     2     2     5     5
 0.0000000007     2     2     6     1
 0.3717170711     2     2     6     6
 0.0000000004     2     3     1     6
 -0.3859422376     2     3     3     2
 0.0000000003     2     3     3     4
 -0.0000000010     2     3     3     5
 -0.0000000001     2     3     4     1
 -0.0000000007     2     3     4     2
 0.0219561323     2     3     4     4
 0.2037136118     2     3     4     5
 -0.0000000004     2     3     5     2
 -0.0031757509     2     3     5     4
 -0.0219561323     2     3     5     5
 0.0000000004     2     3     6     1
 -0.0212772685     2     4     1     6
 -0.0000000001     2     4     3     1
 -0.0000000007     2     4     3     2
 -0.0000000003     2     4     3     3
 0.1988032171     2     4     3     5
 -0.3618352342     2     4     4     2
 -0.0219561323     2     4     4     3
 0.0000000010     2     4     4     5
 0.0219561323     2     4     5     2
 0.0031757509     2     4     5     3
 0.0000000004     2     4     5     5
 -0.0220562915     2     4     6     1
 -0.0000000002     2     5     1     1
 -0.0000000001     2     5     1     2
 -0.1966397042     2     5     1     6
 -0.0000000004     2     5     3     2
 0.0000000010     2     5     3     3
 -0.1988032171     2     5     3     4
 0.0219561323     2     5     4     2
 -0.2037136118     2     5     4     3
 -0.0000000010     2     5     4     4
 -0.1612973733     2     5     5     2
 0.0219561323     2     5     5     3
 -0.0000000004     2     5     5     4
 -0.0000000001     2     5     5     6
 -0.2038392591     2     5     6     1
 0.0000000002     2     5     6     6
 -0.0000000001     2     6     1     1
 -0.0000000007     2     6     1     2
 -0.0000000004     2     6     1     3
 0.0212772685     2     6     1     4
 0.1966397042     2     6     1     5
 0.0001020815     2     6     4     1
 0.0009434149     2     6     5     1
 0.0000000001     2     6     5     5
 -0.3717170711     2     6     6     2
 -0.0000000002     2     6     6     5
 -0.3842947904     3     1     1     3
 -0.0000000002     3     1     1     4
 0.0000000001     3     1     1     5
 -0.0000000001     3     1     2     4
 0.0009434149     3     1     4     6
 -0.0001020815     3     1     5     6
 -0.0000000004     3     1     6     2
 0.0000000010     3     1     6     3
 -0.2038392591     3     1     6     4
 0.0220562915     3     1     6     5
 -0.0000000001     3     2     1     4
 0.0000000004     3     2     1     6
 -0.3859422376     3     2     2     3
 -0.0000000007     3     2     2     4
 -0.0000000004     3     2     2     5
 0.0000000003     3     2     4     3
 0.0219561323     3     2     4     4
 -0.0031757509     3     2     4     5
 -0.0000000010     3     2     5     3
 0.2037136118     3     2     5     4
 -0.0219561323     3     2     5     5
 0.0000000004     3     2     6     1
 0.3842947904     3     3     1     1
 -0.0000000010     3     3     1     6
 0.3859422376     3     3     2     2
 -0.0000000003     3     3     2     4
 0.0000000010     3     3     2     5
 -0.0000000003     3     3     4     2
 0.1612973733     3     3     4     4
 0.0219561323     3     3     4     5
 0.0000000010     3     3     5     2
 0.0219561323     3     3     5     4
 0.3618352342     3     3     5     5
 -0.0000000010     3     3     6     1
 0.3717170711     3     3     6     6
 0.0000000002     3     4     1     1
 0.0000000001     3     4     1     2
 0.1966397042     3     4     1     6
 0.0000000001     3     4     2     1
 0.0000000007     3     4     2     2
 0.0000000003     3     4     2     3
 -0.1988032171     3     4     2     5
 -0.0219561323     3     4     4     2
 -0.1612973733     3     4     4     3
 0.0000000003     3     4     4     5
 -0.2037136118     3     4     5     2
 -0.0219561323     3     4     5     3
 -0.0000000007     3     4     5     5
 0.0000000001     3     4     5     6
 0.2038392591     3     4     6     1
 0.0000000001     3     4     6     5
 -0.0000000002     3     4     6     6
 -0.0000000001     3     5     1     1
 -0.0212772685     3     5     1     6
 0.0000000004     3     5     2     2
 -0.0000000010     3     5     2     3
 0.1988032171     3     5     2     4
 0.0031757509     3     5     4     2
 -0.0219561323     3     5     4     3
 -0.0000000003     3     5     4     4
 0.0219561323     3     5     5     2
 -0.3618352342     3     5     5     3
 0.0000000007     3     5     5     4
 -0.0220562915     3     5     6     1
 -0.0000000001     3     5     6     4
 -0.0000000004     3     6     1     2
 0.0000000010     3     6     1     3
 -0.1966397042     3     6     1     4
 0.0212772685     3     6     1     5
 -0.0009434149     3     6     4     1
 0.0001020815     3     6     5     1
 -0.0000000001     3     6     5     4
 -0.3717170711     3     6     6     3
 0.0000000002     3     6     6     4
 -0.0000000002     4     1     1     3
 -0.3652514708     4     1     1     4
 -0.0000000001     4     1     2     3
 0.0001020815     4     1     2     6
 -0.0009434149     4     1     3     6
 0.0212772685     4     1     6     2
 -0.1966397042     4     1     6     3
 -0.0000000011     4     1     6     4
 -0.0000000003     4     1     6     5
 -0.0000000001     4     2     1     3
 -0.0220562915     4     2     1     6
 -0.0000000007     4     2     2     3
 -0.3618352342     4     2     2     4
 0.0219561323     4     2     2     5
 -0.0000000003     4     2     3     3
 -0.0219561323     4     2     3     4
 0.0031757509     4     2     3     5
 0.1988032171     4     2     5     3
 0.0000000010     4     2     5     4
 0.0000000004     4     2     5     5
 -0.0212772685     4     2     6     1
 0.0000000002     4     3     1     1
 0.0000000001     4     3     1     2
 0.2038392591     4     3     1     6
 0.0000000001     4     3     2     1
 0.0000000007     4     3     2     2
 -0.0219561323     4     3     2     4
 -0.2037136118     4     3     2     5
 0.0000000003     4     3     3     2
 -0.1612973733     4     3     3     4
 -0.0219561323     4     3     3     5
 -0.1988032171     4     3     5     2
 0.0000000003     4     3     5     4
 -0.0000000007     4     3     5     5
 0.0000000001     4     3     5     6
 0.1966397042     4     3     6     1
 0.0000000001     4     3     6     5
 -0.0000000002     4     3     6     6
 0.3652514708     4     4     1     1
 0.0000000011     4     4     1     6
 0.3618352342     4     4     2     2
 0.0219561323     4     4     2     3
 -0.0000000010     4     4     2     5
 0.0219561323     4     4     3     2
 0.1612973733     4     4     3     3
 -0.0000000003     4     4     3     5
 -0.0000000010     4     4     5     2
 -0.0000000003     4     4     5     3
 0.3541389947     4     4     5     5
 0.0000000011     4     4     6     1
 0.3602349458     4     4     6     6
 0.0000000003     4     5     1     6
 -0.0219561323     4     5     2     2
 0.2037136118     4     5     2     3
 0.0000000010     4     5     2     4
 -0.0031757509     4     5     3     2
 0.0219561323     4     5     3     3
 0.0000000003     4     5     3     4
 -0.0000000004     4     5     5     2
 0.0000000007     4     5     5     3
 -0.3541389947     4     5     5     4
 0.0000000003     4     5     6     1
 -0.0000000001     4     5     6     3
 0.0220562915     4     6     1     2
 -0.2038392591     4     6     1     3
 -0.0000000011     4     6     1     4
 -0.0000000003     4     6     1     5
 -0.0001020815     4     6     2     1
 0.0009434149     4     6     3     1
 -0.0000000001     4     6     5     3
 0.0000000002     4     6     6     3
 -0.3602349458     4     6     6     4
 0.0000000002     5     1     1     2
 0.0000000001     5     1     1     3
 -0.3652514708     5     1     1     5
 0.0000000001     5     1     2     2
 0.0009434149     5     1     2     6
 0.0001020815     5     1     3     6
 0.1966397042     5     1     6     2
 0.0212772685     5     1     6     3
 -0.0000000003     5     1     6     4
 0.0000000008     5     1     6     5
 -0.0000000001     5     1     6     6
 -0.0000000002     5     2     1     1
 -0.2038392591     5     2     1     6
 -0.0000000001     5     2     2     1
 -0.0000000004     5     2     2     3
 0.0219561323     5     2     2     4
 -0.1612973733     5     2     2     5
 0.0000000010     5     2     3     3
 -0.2037136118     5     2     3     4
 0.0219561323     5     2     3     5
 -0.1988032171     5     2     4     3
 -0.0000000010     5     2     4     4
 -0.0000000004     5     2     4     5
 -0.1966397042     5     2     6     1
 -0.0000000001     5     2     6     5
 0.0000000002     5     2     6     6
 -0.0000000001     5     3     1     1
 -0.0220562915     5     3     1     6
 0.0000000004     5     3     2     2
 0.0031757509     5     3     2     4
 0.0219561323     5     3     2     5
 -0.0000000010     5     3     3     2
 -0.0219561323     5     3     3     4
 -0.3618352342     5     3     3     5
 0.1988032171     5     3     4     2
 -0.0000000003     5     3     4     4
 0.0000000007     5     3     4     5