&FCI NORB= 19,NELEC= 14,MS2=0,
 ORBSYM=1,1,1,1,1,1,1,1,1,1,1,1,1,1,1,1,1,1,1
 ISYM=1,
&END
 0.1790994268     1     1     2     2
 -0.0001094730     1     1     2     4
 -0.0020114470     1     1     2    10
 0.0016543330     1     1     2    16
 -0.0016100062     1     1     2    18
 0.5466847182     1     1     3     3
 -0.0000000027     1     1     3     4
 0.0019592527     1     1     3     5
 0.0000000002     1     1     3    10
 0.0783838767     1     1     3    11
 0.0000000008     1     1     3    16
 0.1438109880     1     1     3    17
 0.0000000009     1     1     3    18
 -0.0001094730     1     1     4     2
 -0.0000000027     1     1     4     3
 0.5512186925     1     1     4     4
 0.0000000003     1     1     4     5
 -0.0193381071     1     1     4    10
 -0.0000000006     1     1     4    11
 -0.1243942413     1     1     4    16
 -0.0000000011     1     1     4    17
 -0.1048597273     1     1     4    18
 0.0019592527     1     1     5     3
 0.0000000003     1     1     5     4
 0.5084058736     1     1     5     5
 0.0000000024     1     1     5    10
 0.1680892928     1     1     5    11
 -0.0000000010     1     1     5    16
 -0.1029225581     1     1     5    17
 0.0000000008     1     1     5    18
 0.5167290582     1     1     6     6
 0.0000000004     1     1     6     8
 0.0000000025     1     1     6     9
 -0.2038560599     1     1     6    12
 0.0011572119     1     1     6    13
 0.0000000012     1     1     6    14
 0.0000000009     1     1     6    15
 0.5167290582     1     1     7     7
 0.0000000025     1     1     7     8
 -0.0000000004     1     1     7     9
 -0.0011572119     1     1     7    12
 -0.2038560599     1     1     7    13
 -0.0000000008     1     1     7    14
 0.0000000010     1     1     7    15
 0.0000000004     1     1     8     6
 0.0000000025     1     1     8     7
 0.5236142580     1     1     8     8
 -0.0000000002     1     1     8    12
 -0.0000000016     1     1     8    13
 -0.0993823294     1     1     8    14
 0.1790079544     1     1     8    15
 0.0000000025     1     1     9     6
 -0.0000000004     1     1     9     7
 0.5236142580     1     1     9     9
 -0.0000000014     1     1     9    12
 0.0000000003     1     1     9    13
 0.1790079544     1     1     9    14
 0.0993823294     1     1     9    15
 -0.0020114470     1     1    10     2
 0.0000000002     1     1    10     3
 -0.0193381071     1     1    10     4
 0.0000000024     1     1    10     5
 0.5410457245     1     1    10    10
 0.0000000017     1     1    10    11
 -0.1449689832     1     1    10    16
 -0.0000000006     1     1    10    17
 0.1414494154     1     1    10    18
 0.0783838767     1     1    11     3
 -0.0000000006     1     1    11     4
 0.1680892928     1     1    11     5
 0.0000000017     1     1    11    10
 0.5316835964     1     1    11    11
 -0.0000000010     1     1    11    16
 -0.0204925273     1     1    11    17
 0.0000000020     1     1    11    18
 -0.2038560599     1     1    12     6
 -0.0011572119     1     1    12     7
 -0.0000000002     1     1    12     8
 -0.0000000014     1     1    12     9
 0.5083902572     1     1    12    12
 -0.0000000019     1     1    12    14
 -0.0000000015     1     1    12    15
 0.0011572119     1     1    13     6
 -0.2038560599     1     1    13     7
 -0.0000000016     1     1    13     8
 0.0000000003     1     1    13     9
 0.5083902572     1     1    13    13
 0.0000000015     1     1    13    14
 -0.0000000019     1     1    13    15
 0.0000000012     1     1    14     6
 -0.0000000008     1     1    14     7
 -0.0993823294     1     1    14     8
 0.1790079544     1     1    14     9
 -0.0000000019     1     1    14    12
 0.0000000015     1     1    14    13
 0.5041330855     1     1    14    14
 0.0000000009     1     1    15     6
 0.0000000010     1     1    15     7
 0.1790079544     1     1    15     8
 0.0993823294     1     1    15     9
 -0.0000000015     1     1    15    12
 -0.0000000019     1     1    15    13
 0.5041330855     1     1    15    15
 0.0016543330     1     1    16     2
 0.0000000008     1     1    16     3
 -0.1243942413     1     1    16     4
 -0.0000000010     1     1    16     5
 -0.1449689832     1     1    16    10
 -0.0000000010     1     1    16    11
 0.4633053091     1     1    16    16
 0.0000000021     1     1    16    17
 -0.0284351172     1     1    16    18
 0.1438109880     1     1    17     3
 -0.0000000011     1     1    17     4
 -0.1029225581     1     1    17     5
 -0.0000000006     1     1    17    10
 -0.0204925273     1     1    17    11
 0.0000000021     1     1    17    16
 0.4456711324     1     1    17    17
 0.0000000004     1     1    17    18
 -0.0016100062     1     1    18     2
 0.0000000009     1     1    18     3
 -0.1048597273     1     1    18     4
 0.0000000008     1     1    18     5
 0.1414494154     1     1    18    10
 0.0000000020     1     1    18    11
 -0.0284351172     1     1    18    16
 0.0000000004     1     1    18    17
 0.4902439878     1     1    18    18
 0.4719062250     1     1    19    19
 -0.1790994268     1     2     2     1
 -0.0000365026     1     2     2     3
 -0.0019963248     1     2     2     5
 -0.0020903928     1     2     2    11
 0.0010720450     1     2     2    17
 0.3698220653     1     2     3     4
 -0.0195572155     1     2     3    10
 -0.1093621737     1     2     3    16
 -0.1117008897     1     2     3    18
 0.0001094730     1     2     4     1
 0.3698221562     1     2     4     3
 -0.0452674156     1     2     4     5
 0.0772906572     1     2     4    11
 0.1477561582     1     2     4    17
 -0.0452713848     1     2     5     4
 0.0000000001     1     2     5     7
 -0.3348620557     1     2     5    10
 0.1396862429     1     2     5    16
 -0.1093355647     1     2     5    18
 -0.0000000004     1     2     6     6
 -0.0000000002     1     2     6     7
 -0.0568166783     1     2     6     8
 -0.3396851446     1     2     6     9
 0.0000000001     1     2     6    12
 0.0000000001     1     2     6    13
 -0.1526642395     1     2     6    14
 -0.1215820722     1     2     6    15
 0.0000000001     1     2     7     5
 -0.0000000002     1     2     7     6
 0.0000000004     1     2     7     7
 -0.3396851446     1     2     7     8
 0.0568166783     1     2     7     9
 0.0000000001     1     2     7    12
 -0.0000000001     1     2     7    13
 0.1215820722     1     2     7    14
 -0.1526642395     1     2     7    15
 -0.0568118766     1     2     8     6
 -0.3396564367     1     2     8     7
 -0.0000000003     1     2     8     8
 0.0000000003     1     2     8     9
 -0.0000000001     1     2     8    10
 0.0353699982     1     2     8    12
 0.2043283273     1     2     8    13
 0.0000000001     1     2     8    14
 -0.0000000001     1     2     8    15
 -0.3396564367     1     2     9     6
 0.0568118766     1     2     9     7
 0.0000000003     1     2     9     8
 0.0000000003     1     2     9     9
 0.2043283273     1     2     9    12
 -0.0353699982     1     2     9    13
 0.0000000001     1     2     9    15
 0.0020114470     1     2    10     1
 -0.0195538297     1     2    10     3
 -0.3348189737     1     2    10     5
 -0.0000000001     1     2    10     8
 -0.2247539395     1     2    10    11
 0.0734464081     1     2    10    17
 0.0772893149     1     2    11     4
 -0.2248011925     1     2    11    10
 0.1256106084     1     2    11    16
 -0.2752678506     1     2    11    18
 0.0000000001     1     2    12     6
 0.0000000001     1     2    12     7
 0.0353760526     1     2    12     8
 0.2043633030     1     2    12     9
 -0.0000000001     1     2    12    12
 0.2590968164     1     2    12    14
 0.2087597329     1     2    12    15
 0.0000000001     1     2    13     6
 -0.0000000001     1     2    13     7
 0.2043633030     1     2    13     8
 -0.0353760526     1     2    13     9
 0.0000000001     1     2    13    13
 -0.2087597329     1     2    13    14
 0.2590968164     1     2    13    15
 -0.1526370290     1     2    14     6
 0.1215604017     1     2    14     7
 0.0000000001     1     2    14     8
 0.2590640126     1     2    14    12
 -0.2087333021     1     2    14    13
 0.0000000001     1     2    14    15
 -0.1215604017     1     2    15     6
 -0.1526370290     1     2    15     7
 -0.0000000001     1     2    15     8
 0.0000000001     1     2    15     9
 0.2087333021     1     2    15    12
 0.2590640126     1     2    15    13
 0.0000000001     1     2    15    14
 -0.0016543330     1     2    16     1
 -0.1093650290     1     2    16     3
 0.1396525816     1     2    16     5
 0.1255738812     1     2    16    11
 -0.2901140643     1     2    16    17
 0.1477568868     1     2    17     4
 0.0734695252     1     2    17    10
 -0.2901319626     1     2    17    16
 -0.0592033292     1     2    17    18
 0.0016100062     1     2    18     1
 -0.1116979615     1     2    18     3
 -0.1092999172     1     2    18     5
 -0.2752294018     1     2    18    11
 -0.0592219770     1     2    18    17
 -0.0000000001     1     2    19    19
 0.0000365026     1     3     2     2
 -0.0000000635     1     3     2     4
 -0.0000032844     1     3     2    10
 0.0000025102     1     3     2    16
 -0.0000024665     1     3     2    18
 -0.5466847182     1     3     3     1
 -0.0011968525     1     3     3     5
 -0.0016647211     1     3     3    11
 0.0001791241     1     3     3    17
 0.0000000027     1     3     4     1
 -0.3698221562     1     3     4     2
 -0.0001226043     1     3     4     4
 -0.0018770206     1     3     4    10
 0.0019786614     1     3     4    16
 -0.0010485470     1     3     4    18
 -0.0019592527     1     3     5     1
 -0.0174650785     1     3     5     5
 -0.0000000001     1     3     5    10
 -0.0201733386     1     3     5    11
 0.0103739351     1     3     5    17
 -0.0185876105     1     3     6     6
 -0.0000000001     1     3     6     9
 0.0228253145     1     3     6    12
 -0.0001295705     1     3     6    13
 -0.0000000001     1     3     6    14
 -0.0185876105     1     3     7     7
 0.0001295705     1     3     7    12
 0.0228253145     1     3     7    13
 -0.0183364403     1     3     8     8
 0.0000000001     1     3     8    13
 0.0107974366     1     3     8    14
 -0.0194483975     1     3     8    15
 -0.0183364403     1     3     9     9
 0.0000000001     1     3     9    12
 -0.0194483975     1     3     9    14
 -0.0107974366     1     3     9    15
 -0.0000000002     1     3    10     1
 0.0195538297     1     3    10     2
 -0.0010885223     1     3    10     4
 -0.0191120451     1     3    10    10
 -0.0000000001     1     3    10    11
 0.0163424078     1     3    10    16
 -0.0155650360     1     3    10    18
 -0.0783838767     1     3    11     1
 -0.0137919151     1     3    11     5
 -0.0166102964     1     3    11    11
 0.0082741095     1     3    11    17
 0.0155292020     1     3    12     6
 0.0000881533     1     3    12     7
 -0.0197554960     1     3    12    12
 -0.0000881533     1     3    13     6
 0.0155292020     1     3    13     7
 -0.0197554960     1     3    13    13
 0.0075080561     1     3    14     8
 -0.0135235486     1     3    14     9
 -0.0194613889     1     3    14    14
 -0.0135235486     1     3    15     8
 -0.0075080561     1     3    15     9
 -0.0194613889     1     3    15    15
 -0.0000000008     1     3    16     1
 0.1093650290     1     3    16     2
 0.0006389328     1     3    16     4
 0.0114540584     1     3    16    10
 -0.0105238107     1     3    16    16
 0.0093508428     1     3    16    18
 -0.1438109880     1     3    17     1
 0.0067390150     1     3    17     5
 0.0078299283     1     3    17    11
 -0.0046984246     1     3    17    17
 -0.0000000009     1     3    18     1
 0.1116979615     1     3    18     2
 -0.0005490205     1     3    18     4
 -0.0104369607     1     3    18    10
 0.0089940760     1     3    18    16
 -0.0091959821     1     3    18    18
 -0.0027370352     1     3    19    19
 0.0001094730     1     4     2     1
 0.0000000635     1     4     2     3
 0.0000031496     1     4     2     5
 0.0000018000     1     4     2    11
 -0.0000010176     1     4     2    17
 0.0000000027     1     4     3     1
 -0.3698220653     1     4     3     2
 -0.0008134844     1     4     3    10
 0.0013481672     1     4     3    16
 -0.0005058645     1     4     3    18
 -0.5512186925     1     4     4     1
 0.0001226043     1     4     4     3
 0.0000094406     1     4     4     5
 0.0000557501     1     4     4    11
 -0.0006865753     1     4     4    17
 -0.0000000003     1     4     5     1
 0.0452713848     1     4     5     2
 0.0183680247     1     4     5    10
 0.0000000001     1     4     5    11
 -0.0153861359     1     4     5    16
 0.0153503005     1     4     5    18
 0.0000000001     1     4     6     6
 0.0030539295     1     4     6     8
 0.0182582739     1     4     6     9
 -0.0000000001     1     4     6    12
 0.0177004739     1     4     6    14
 0.0140966889     1     4     6    15
 0.0182582739     1     4     7     8
 -0.0030539295     1     4     7     9
 -0.0140966889     1     4     7    14
 0.0177004739     1     4     7    15
 0.0030400983     1     4     8     6
 0.0181755826     1     4     8     7
 0.0000000001     1     4     8     8
 -0.0039283686     1     4     8    12
 -0.0226937244     1     4     8    13
 0.0000000001     1     4     8    15
 0.0181755826     1     4     9     6
 -0.0030400983     1     4     9     7
 -0.0226937244     1     4     9    12
 0.0039283686     1     4     9    13
 0.0193381071     1     4    10     1
 0.0010885223     1     4    10     3
 0.0179340377     1     4    10     5
 0.0000000001     1     4    10    10
 0.0215069090     1     4    10    11
 -0.0102976077     1     4    10    17
 0.0000000006     1     4    11     1
 -0.0772893149     1     4    11     2
 0.0154485856     1     4    11    10
 -0.0128700593     1     4    11    16
 0.0136371065     1     4    11    18
 -0.0027257806     1     4    12     8
 -0.0157465146     1     4    12     9
 -0.0156191959     1     4    12    14
 -0.0125847134     1     4    12    15
 -0.0157465146     1     4    13     8
 0.0027257806     1     4    13     9
 0.0125847134     1     4    13    14
 -0.0156191959     1     4    13    15
 0.0120811895     1     4    14     6
 -0.0096214808     1     4    14     7
 -0.0153548672     1     4    14    12
 0.0123717381     1     4    14    13
 0.0096214808     1     4    15     6
 0.0120811895     1     4    15     7
 -0.0123717381     1     4    15    12
 -0.0153548672     1     4    15    13
 0.1243942413     1     4    16     1
 -0.0006389328     1     4    16     3
 -0.0106188238     1     4    16     5
 -0.0127928471     1     4    16    11
 0.0063997509     1     4    16    17
 0.0000000011     1     4    17     1
 -0.1477568868     1     4    17     2
 -0.0074473121     1     4    17    10
 0.0066375615     1     4    17    16
 -0.0061064650     1     4    17    18
 0.1048597273     1     4    18     1
 0.0005490205     1     4    18     3
 0.0096419307     1     4    18     5
 0.0121413518     1     4    18    11
 -0.0051753757     1     4    18    17
 0.0019963248     1     5     2     2
 -0.0000031496     1     5     2     4
 -0.0000440422     1     5     2    10
 0.0000354392     1     5     2    16
 -0.0000356313     1     5     2    18
 -0.0019592527     1     5     3     1
 0.0011968525     1     5     3     3
 -0.0000000001     1     5     3    10
 -0.0065464288     1     5     3    11
 0.0037189065     1     5     3    17
 -0.0000000003     1     5     4     1
 0.0452674156     1     5     4     2
 -0.0000094406     1     5     4     4
 0.0005352242     1     5     4    10
 0.0000000001     1     5     4    11
 -0.0048944398     1     5     4    16
 0.0058210489     1     5     4    18
 -0.5084058736     1     5     5     1
 0.0174650785     1     5     5     3
 0.0035125865     1     5     5    11
 0.0085275958     1     5     5    17
 0.0018596757     1     5     6     6
 -0.0010042534     1     5     6    12
 0.0000057008     1     5     6    13
 -0.0000000001     1     5     7     2
 0.0018596757     1     5     7     7
 -0.0000057008     1     5     7    12
 -0.0010042534     1     5     7    13
 0.0018478440     1     5     8     8
 -0.0007127047     1     5     8    14
 0.0012837274     1     5     8    15
 0.0018478440     1     5     9     9
 0.0012837274     1     5     9    14
 0.0007127047     1     5     9    15
 -0.0000000024     1     5    10     1
 0.3348189737     1     5    10     2
 -0.0179340377     1     5    10     4
 0.0041474752     1     5    10    10
 0.0054134368     1     5    10    16
 0.0097785061     1     5    10    18
 -0.1680892928     1     5    11     1
 0.0137919151     1     5    11     3
 0.0105144994     1     5    11    11
 0.0106098422     1     5    11    17
 -0.0010959317     1     5    12     6
 -0.0000062211     1     5    12     7
 0.0024012867     1     5    12    12
 0.0000062211     1     5    13     6
 -0.0010959317     1     5    13     7
 0.0024012867     1     5    13    13
 -0.0004918740     1     5    14     8
 0.0008859659     1     5    14     9
 0.0018889621     1     5    14    14
 0.0008859659     1     5    15     8
 0.0004918740     1     5    15     9
 0.0018889621     1     5    15    15
 0.0000000010     1     5    16     1
 -0.1396525816     1     5    16     2
 0.0106188238     1     5    16     4
 -0.0017515847     1     5    16    10
 -0.0073493559     1     5    16    16
 -0.0071560596     1     5    16    18
 0.1029225581     1     5    17     1
 -0.0067390150     1     5    17     3
 -0.0019112608     1     5    17    11
 -0.0061110677     1     5    17    17
 -0.0000000008     1     5    18     1
 0.1092999172     1     5    18     2
 -0.0096419307     1     5    18     4
 0.0014884396     1     5    18    10
 0.0063040392     1     5    18    16
 0.0093808657     1     5    18    18
 0.0010410120     1     5    19    19
 -0.0000049357     1     6     2     8
 -0.0000295085     1     6     2     9
 -0.0000259397     1     6     2    14
 -0.0000206584     1     6     2    15
 -0.0000000001     1     6     3     9
 0.0074821300     1     6     3    12
 -0.0000424732     1     6     3    13
 -0.0000000001     1     6     3    14
 0.0000249370     1     6     4     8
 0.0001490889     1     6     4     9
 -0.0000000001     1     6     4    12
 0.0057247345     1     6     4    14
 0.0045591888     1     6     4    15
 0.0001163319     1     6     5    12
 -0.0000006604     1     6     5    13
 -0.5167290582     1     6     6     1
 0.0000000004     1     6     6     2
 0.0185876105     1     6     6     3
 -0.0000000001     1     6     6     4
 -0.0018596757     1     6     6     5
 0.0042012753     1     6     6    11
 0.0096975237     1     6     6    17
 0.0024931229     1     6     6    19
 0.0000000002     1     6     7     2
 -0.0064752495     1     6     7    19
 -0.0000000004     1     6     8     1
 0.0568118766     1     6     8     2
 -0.0030400983     1     6     8     4
 0.0004082702     1     6     8    10
 0.0010909523     1     6     8    16
 0.0012522318     1     6     8    18
 -0.0000000025     1     6     9     1
 0.3396564367     1     6     9     2
 -0.0181755826     1     6     9     4
 0.0024408908     1     6     9    10
 0.0065223856     1     6     9    16
 0.0074866144     1     6     9    18
 0.0000068288     1     6    10     8
 0.0000408265     1     6    10     9
 -0.0002186713     1     6    10    14
 -0.0001741502     1     6    10    15
 -0.0009024386     1     6    11    12
 0.0000051228     1     6    11    13
 0.2038560599     1     6    12     1
 -0.0000000001     1     6    12     2
 -0.0155292020     1     6    12     3
 0.0010959317     1     6    12     5
 -0.0078037517     1     6    12    11
 -0.0137978957     1     6    12    17
 -0.0012758872     1     6    12    19
 -0.0011572119     1     6    13     1
 -0.0000000001     1     6    13     2
 0.0000881533     1     6    13     3
 -0.0000062211     1     6    13     5
 0.0000442989     1     6    13    11
 0.0000783253     1     6    13    17
 0.0033707301     1     6    13    19
 -0.0000000012     1     6    14     1
 0.1526370290     1     6    14     2
 -0.0120811895     1     6    14     4
 0.0010826107     1     6    14    10
 0.0085998257     1     6    14    16
 0.0086478645     1     6    14    18
 -0.0000000009     1     6    15     1
 0.1215604017     1     6    15     2
 -0.0096214808     1     6    15     4
 0.0008621931     1     6    15    10
 0.0068489165     1     6    15    16
 0.0068871747     1     6    15    18
 -0.0000048265     1     6    16     8
 -0.0000288562     1     6    16     9
 0.0011138111     1     6    16    14
 0.0008870411     1     6    16    15
 -0.0020985704     1     6    17    12
 0.0000119127     1     6    17    13
 -0.0000289073     1     6    18     8
 -0.0001728256     1     6    18     9
 0.0018314680     1     6    18    14
 0.0014585843     1     6    18    15
 0.0019958548     1     6    19    12
 -0.0052727922     1     6    19    13
 -0.0000295085     1     7     2     8
 0.0000049357     1     7     2     9
 0.0000206584     1     7     2    14
 -0.0000259397     1     7     2    15
 -0.0000000001     1     7     3     8
 0.0000424732     1     7     3    12
 0.0074821300     1     7     3    13
 0.0001490889     1     7     4     8
 -0.0000249370     1     7     4     9
 -0.0045591888     1     7     4    14
 0.0057247345     1     7     4    15
 -0.0000000001     1     7     5     2
 0.0000006604     1     7     5    12
 0.0001163319     1     7     5    13
 0.0000000002     1     7     6     2
 -0.0064752495     1     7     6    19
 -0.5167290582     1     7     7     1
 -0.0000000004     1     7     7     2
 0.0185876105     1     7     7     3
 -0.0018596757     1     7     7     5
 0.0042012753     1     7     7    11
 0.0096975237     1     7     7    17
 -0.0024931229     1     7     7    19
 -0.0000000025     1     7     8     1
 0.3396564367     1     7     8     2
 -0.0181755826     1     7     8     4
 0.0024408908     1     7     8    10
 0.0065223856     1     7     8    16
 0.0074866144     1     7     8    18
 0.0000000004     1     7     9     1
 -0.0568118766     1     7     9     2
 0.0030400983     1     7     9     4
 -0.0004082702     1     7     9    10
 -0.0010909523     1     7     9    16
 -0.0012522318     1     7     9    18
 0.0000408265     1     7    10     8
 -0.0000068288     1     7    10     9
 0.0001741502     1     7    10    14
 -0.0002186713     1     7    10    15
 -0.0000051228     1     7    11    12
 -0.0009024386     1     7    11    13
 0.0011572119     1     7    12     1
 -0.0000000001     1     7    12     2
 -0.0000881533     1     7    12     3
 0.0000062211     1     7    12     5
 -0.0000442989     1     7    12    11
 -0.0000783253     1     7    12    17
 0.0033707301     1     7    12    19
 0.2038560599     1     7    13     1
 0.0000000001     1     7    13     2
 -0.0155292020     1     7    13     3
 0.0010959317     1     7    13     5
 -0.0078037517     1     7    13    11
 -0.0137978957     1     7    13    17
 0.0012758872     1     7    13    19
 0.0000000008     1     7    14     1
 -0.1215604017     1     7    14     2
 0.0096214808     1     7    14     4
 -0.0008621931     1     7    14    10
 -0.0068489165     1     7    14    16
 -0.0068871747     1     7    14    18
 -0.0000000010     1     7    15     1
 0.1526370290     1     7    15     2
 -0.0120811895     1     7    15     4
 0.0010826107     1     7    15    10
 0.0085998257     1     7    15    16
 0.0086478645     1     7    15    18
 -0.0000288562     1     7    16     8
 0.0000048265     1     7    16     9
 -0.0008870411     1     7    16    14
 0.0011138111     1     7    16    15
 -0.0000119127     1     7    17    12
 -0.0020985704     1     7    17    13
 -0.0001728256     1     7    18     8
 0.0000289073     1     7    18     9
 -0.0014585843     1     7    18    14
 0.0018314680     1     7    18    15
 -0.0052727922     1     7    19    12
 -0.0019958548     1     7    19    13
 0.0000049357     1     8     2     6
 0.0000295085     1     8     2     7
 -0.0000068333     1     8     2    12
 -0.0000394752     1     8     2    13
 0.0000000001     1     8     3     7
 0.0000000001     1     8     3    13
 0.0030929730     1     8     3    14
 -0.0055710786     1     8     3    15
 -0.0000249370     1     8     4     6
 -0.0001490889     1     8     4     7
 -0.0011564565     1     8     4    12
 -0.0066807129     1     8     4    13
 0.0000000001     1     8     4    15
 -0.0001961033     1     8     5    14
 0.0003532223     1     8     5    15
 -0.0000000004     1     8     6     1
 0.0568166783     1     8     6     2
 -0.0030539295     1     8     6     4
 0.0004116897     1     8     6    10
 0.0010968878     1     8     6    16
 0.0012906808     1     8     6    18
 -0.0000000025     1     8     7     1
 0.3396851446     1     8     7     2
 -0.0182582739     1     8     7     4
 0.0024613354     1     8     7    10
 0.0065578719     1     8     7    16
 0.0077164861     1     8     7    18
 -0.5236142580     1     8     8     1
 0.0000000003     1     8     8     2
 0.0183364403     1     8     8     3
 -0.0000000001     1     8     8     4
 -0.0018478440     1     8     8     5
 0.0047935015     1     8     8    11
 0.0100053948     1     8     8    17
 -0.0045915830     1     8     8    19
 -0.0000000003     1     8     9     2
 -0.0054625460     1     8     9    19
 0.0000000001     1     8    10     2
 -0.0000068288     1     8    10     6
 -0.0000408265     1     8    10     7
 0.0000830624     1     8    10    12
 0.0004798417     1     8    10    13
 -0.0001588082     1     8    11    14
 0.0002860463     1     8    11    15
 0.0000000002     1     8    12     1
 -0.0353760526     1     8    12     2
 0.0027257806     1     8    12     4
 -0.0002592410     1     8    12    10
 -0.0018358657     1     8    12    16
 -0.0018822778     1     8    12    18
 0.0000000016     1     8    13     1
 -0.2043633030     1     8    13     2
 0.0157465146     1     8    13     4
 -0.0014976046     1     8    13    10
 -0.0106055807     1     8    13    16
 -0.0108736981     1     8    13    18
 0.0993823294     1     8    14     1
 -0.0000000001     1     8    14     2
 -0.0075080561     1     8    14     3
 0.0004918740     1     8    14     5
 -0.0035047116     1     8    14    11
 -0.0067216774     1     8    14    17
 -0.0012535902     1     8    14    19
 -0.1790079544     1     8    15     1
 0.0000000001     1     8    15     2
 0.0135235486     1     8    15     3
 -0.0008859659     1     8    15     5
 0.0063127042     1     8    15    11
 0.0121071192     1     8    15    17
 -0.0032806468     1     8    15    19
 0.0000048265     1     8    16     6
 0.0000288562     1     8    16     7
 -0.0002158195     1     8    16    12
 -0.0012467637     1     8    16    13
 -0.0007836172     1     8    17    14
 0.0014114553     1     8    17    15
 0.0000289073     1     8    18     6
 0.0001728256     1     8    18     7
 -0.0003585009     1     8    18    12
 -0.0020710175     1     8    18    13
 0.0020375249     1     8    19    14
 0.0053322046     1     8    19    15
 0.0000295085     1     9     2     6
 -0.0000049357     1     9     2     7
 -0.0000394752     1     9     2    12
 0.0000068333     1     9     2    13
 0.0000000001     1     9     3     6
 -0.0055710786     1     9     3    14
 -0.0030929730     1     9     3    15
 -0.0001490889     1     9     4     6
 0.0000249370     1     9     4     7
 -0.0066807129     1     9     4    12
 0.0011564565     1     9     4    13
 0.0003532223     1     9     5    14
 0.0001961033     1     9     5    15
 -0.0000000025     1     9     6     1
 0.3396851446     1     9     6     2
 0.0000000001     1     9     6     3
 -0.0182582739     1     9     6     4
 0.0024613354     1     9     6    10
 0.0065578719     1     9     6    16
 0.0077164861     1     9     6    18
 0.0000000004     1     9     7     1
 -0.0568166783     1     9     7     2
 0.0030539295     1     9     7     4
 -0.0004116897     1     9     7    10
 -0.0010968878     1     9     7    16
 -0.0012906808     1     9     7    18
 -0.0000000003     1     9     8     2
 -0.0054625460     1     9     8    19
 -0.5236142580     1     9     9     1
 -0.0000000003     1     9     9     2
 0.0183364403     1     9     9     3
 -0.0018478440     1     9     9     5
 0.0047935015     1     9     9    11
 0.0100053948     1     9     9    17
 0.0045915830     1     9     9    19
 -0.0000408265     1     9    10     6
 0.0000068288     1     9    10     7
 0.0004798417     1     9    10    12
 -0.0000830624     1     9    10    13
 0.0002860463     1     9    11    14
 0.0001588082     1     9    11    15
 0.0000000014     1     9    12     1
 -0.2043633030     1     9    12     2
 0.0157465146     1     9    12     4
 -0.0014976046     1     9    12    10
 -0.0106055807     1     9    12    16
 -0.0108736981     1     9    12    18
 -0.0000000003     1     9    13     1
 0.0353760526     1     9    13     2
 -0.0027257806     1     9    13     4
 0.0002592410     1     9    13    10
 0.0018358657     1     9    13    16
 0.0018822778     1     9    13    18
 -0.1790079544     1     9    14     1
 0.0135235486     1     9    14     3
 -0.0008859659     1     9    14     5
 0.0063127042     1     9    14    11
 0.0121071192     1     9    14    17
 0.0032806468     1     9    14    19
 -0.0993823294     1     9    15     1
 -0.0000000001     1     9    15     2
 0.0075080561     1     9    15     3
 -0.0004918740     1     9    15     5
 0.0035047116     1     9    15    11
 0.0067216774     1     9    15    17
 -0.0012535902     1     9    15    19
 0.0000288562     1     9    16     6
 -0.0000048265     1     9    16     7
 -0.0012467637     1     9    16    12